{"formula": "Sb2Te3", "spacegroup": "P-3m1 (164)", "cell": {"array": [[4.260659952933306, 2e-16, 0.0], [-2.130329976466652, -3.6898397561272542, 0.0], [0.0, 0.0, -27.555736293320003]]}, "symbols": ["Sb", "Sb", "Te", "Te", "Te"], "positions": [[0.0, 0.0, -11.789254007721528], [4.260661888565542e-08, -2.4598931461525604, -15.766482285598478], [4.260661888565542e-08, -2.4598931461525604, -10.084290022486382], [2.1303299977699397, -1.229946573076293, -13.777868146660001], [0.0, 0.0, -17.471446270833624]], "vdw gap": 1.9886141389384768, "bond length deviation": [["Sb", 0.34778212956257326]], "bond angle deviation": [["Sb", 3.178313684496973]], "mass density": 4.249042438702471, "total energy": -0.69662028, "total energy_soc": -19.77451876, "born effective charge tensor": 11.386164, "born effective charge q_xy": 5.6028020000000005, "born effective charge q_z": 0.18056, "dielectric constant XY": 12.056309, "dielectric constant Z": 1.561254, "bader charge": [["Sb", 5.0, 1.311312], ["Sb", 5.0, 1.315309], ["Te", 6.0, 1.431012], ["Te", 6.0, 1.504453], ["Te", 6.0, 1.442531]], "vbm": 0.7119, "cbm": -0.8739, "band gap": -0.162, "vbm soc": -0.8739, "cbm soc": -0.162, "band gap soc": 0.7119, "KPath": ["0.5000 0.0000 0.0000 ! M", "0.0000 0.0000 0.0000 ! G", "0.0000 0.0000 0.0000 ! G", "0.3333 0.3333 0.0000 ! K", "0.3333 0.3333 0.0000 ! K", "0.5000 0.0000 0.0000 ! M"], "band locations": "/home/gtown/Documents/carbon/mpAll/monoFromMP/calcs/dir_Sb2Te3-P_3m1-13/scf/band", "band soc location": "/home/gtown/Documents/carbon/mpAll/monoFromMP/calcs/dir_Sb2Te3-P_3m1-13/scf_soc/band_soc", "dos location": "/home/gtown/Documents/carbon/mpAll/monoFromMP/calcs/dir_Sb2Te3-P_3m1-13/scf/dos"}