{"formula": "As2GeTe4", "spacegroup": "P3m1 (156)", "cell": {"array": [[4.070932457121757, -3e-16, 0.0], [-2.0354662285608778, -3.525530924958047, 0.0], [0.0, 0.0, -30.334939709082043]]}, "symbols": ["Te", "Te", "As", "Ge", "Te", "Te", "As"], "positions": [[0.0, 0.0, -13.426081733654149], [-2.03546489244735e-08, -2.3503539617237936, -9.986580155342347], [2.0354661878515365, -1.1751769984895657, -11.538210944457452], [-2.03546489244735e-08, -2.3503539617237936, -15.167351963386418], [-2.03546489244735e-08, -2.3503539617237936, -20.348515428562575], [2.0354661878515365, -1.1751769984895657, -16.909035374169573], [0.0, 0.0, -18.796513382214645]], "vdw gap": 1.8878707891966968, "bond length deviation": [["Ge", 0.00013472877557268973], ["As", 0.10346012311838582]], "bond angle deviation": [["Ge", 1.893201577244331], ["As", 3.0069388937181682]], "mass density": 4.168404194034715, "total energy": -182.15515036, "cohesive energy": -5.314173366428572, "born effective charge tensor": 14.273034285714285, "born effective charge q_xy": 7.050494285714286, "born effective charge q_z": 0.1720457142857143, "dielectric constant XY": 19.618513, "dielectric constant Z": 1.748808, "bader charge": [["Te", 6.0, 1.4501], ["Te", 6.0, 6.092737], ["As", 5.0, 1.218462], ["Ge", 14.0, 1.217394], ["Te", 6.0, 1.349408], ["Te", 6.0, 1.450093], ["As", 5.0, 1.21858]], "density of states at fermi": 0.09406, "vbm": 0.5186, "cbm": 0.0221, "band gap": 0.5407, "vbm soc": 0, "cbm soc": 0, "band gap soc": 0, "KPath": ["0.5000 0.0000 0.0000 ! M", "0.0000 0.0000 0.0000 ! G", "0.0000 0.0000 0.0000 ! G", "0.3333 0.3333 0.0000 ! K", "0.3333 0.3333 0.0000 ! K", "0.5000 0.0000 0.0000 ! M"], "band locations": "/home/gtown/Documents/carbon/mpAll/monoFromMP/calcs/dir-As2GeTe4-P_3m1/scf/band", "band soc location": "/home/gtown/Documents/carbon/mpAll/monoFromMP/calcs/dir-As2GeTe4-P_3m1/scf_soc/band_soc", "dos location": "/home/gtown/Documents/carbon/mpAll/monoFromMP/calcs/dir-As2GeTe4-P_3m1/scf/dos"}