{"formula": "As2Te3", "spacegroup": "P3m1 (156)", "cell": {"array": [[4.015447762653169, -0.0, 0.0], [2.007723881326586, -3.4774797700270317, 0.0], [0.0, 0.0, -26.867277118656]]}, "symbols": ["Te", "Te", "As", "Te", "As"], "positions": [[0.0, 0.0, -9.974203814860461], [2.0077239014038395, -1.1591599117507518, -13.433656601545396], [4.015447802807636, -2.3183198235014792, -11.583128387780024], [4.015447802807636, -2.3183198235014792, -16.893095498479855], [0.0, 0.0, -15.284108493974252]], "vdw gap": 1.8505282137653722, "bond length deviation": [["As", 0.07538817822618797]], "bond angle deviation": [["As", 2.8653093847622397]], "mass density": 4.349782894617647, "total energy": -126.38760995, "cohesive energy": -4.144175009, "born effective charge tensor": 13.421536, "born effective charge q_xy": 6.635924, "born effective charge q_z": 0.149688, "dielectric constant XY": 18.688329, "dielectric constant Z": 1.555489, "bader charge": [["Te", 6.0, 6.09979], ["Te", 6.0, 1.448439], ["As", 5.0, 1.206585], ["Te", 6.0, 1.357005], ["As", 5.0, 1.206621]], "density of states at fermi": 0.007499, "vbm": 0.673, "cbm": -0.9072, "band gap": -0.2342, "vbm soc": -0.8727, "cbm soc": -0.2539, "band gap soc": 0.6188, "KPath": ["0.5000 0.0000 0.0000 ! M", "0.0000 0.0000 0.0000 ! G", "0.0000 0.0000 0.0000 ! G", "0.3333 -0.3333 0.0000 ! K", "0.3333 -0.3333 0.0000 ! K", "0.5000 0.0000 0.0000 ! M"], "band locations": "/home/gtown/Documents/carbon/mpAll/monoFromMP/calcs/dir-As2Te3-P_3m1/scf/band", "band soc location": "/home/gtown/Documents/carbon/mpAll/monoFromMP/calcs/dir-As2Te3-P_3m1/scf_soc/band_soc", "dos location": "/home/gtown/Documents/carbon/mpAll/monoFromMP/calcs/dir-As2Te3-P_3m1/scf/dos"}