{"formula": "Bi2Ge2Te5", "spacegroup": "P3m1 (156)", "cell": {"array": [[4.292839853616935, -6e-16, 0.0], [-2.1464199268084667, -3.7177083676105367, 0.0], [0.0, 0.0, -34.612808288992]]}, "symbols": ["Ge", "Bi", "Te", "Te", "Ge", "Bi", "Te", "Te", "Te"], "positions": [[0.0, 0.0, -15.607554295806915], [2.146419948272654, -1.2392361101444924, -11.830330012878324], [0.0, 0.0, -10.076773733039166], [4.292841788214725e-08, -2.478472220288958, -13.968681433168506], [4.292841788214725e-08, -2.478472220288958, -19.00519812104158], [2.146419948272654, -1.2392361101444924, -22.782382707592856], [4.292841788214725e-08, -2.478472220288958, -24.53597643646134], [0.0, 0.0, -20.64422087999561], [2.146419948272654, -1.2392361101444924, -17.306519680479663]], "vdw gap": 2.1383514202901814, "bond length deviation": [["Ge", 0.01746388209774296], ["Bi", 0.12391599339007442]], "bond angle deviation": [["Ge", 1.9403420355265997], ["Bi", 4.989446516552761]], "mass density": 4.534652301741033, "total energy": -248.53344666, "cohesive energy": 2.58901972666666, "born effective charge tensor": 13.554394444444446, "born effective charge q_xy": 6.207041111111112, "born effective charge q_z": 1.1403122222222224, "dielectric constant XY": 15.740858, "dielectric constant Z": 1.939898, "bader charge": [["Ge", 14.0, 1.232583], ["Bi", 5.0, 1.345563], ["Te", 6.0, 1.438541], ["Te", 6.0, 1.486928], ["Ge", 14.0, 1.243509], ["Bi", 5.0, 1.345765], ["Te", 6.0, 1.430746], ["Te", 6.0, 1.472422], ["Te", 6.0, 1.483686]], "density of states at fermi": 0.003117, "vbm": 0.8781999999999999, "cbm": 0.2718, "band gap": 1.15, "vbm soc": 0, "cbm soc": 0, "band gap soc": 0, "KPath": ["0.5000 0.0000 0.0000 ! M", "0.0000 0.0000 0.0000 ! G", "0.0000 0.0000 0.0000 ! G", "0.3333 0.3333 0.0000 ! K", "0.3333 0.3333 0.0000 ! K", "0.5000 0.0000 0.0000 ! M"], "band locations": "/home/gtown/Documents/carbon/mpAll/monoFromMP/calcs/dir-Bi2Ge2Te5-P_3m1/scf/band", "band soc location": "/home/gtown/Documents/carbon/mpAll/monoFromMP/calcs/dir-Bi2Ge2Te5-P_3m1/scf_soc/band_soc", "dos location": "/home/gtown/Documents/carbon/mpAll/monoFromMP/calcs/dir-Bi2Ge2Te5-P_3m1/scf/dos"}