{
  "formula": "Bi2GeTe4",
  "spacegroup": "P-3m1 (164)",
  "cell": {
    "array": [
      [4.325233092467384, -1e-16, 0.0],
      [-2.162616546233691, -3.745761735365882, 0.0],
      [0.0, 0.0, -30.956012145702626]
    ]
  },
  "symbols": ["Ge", "Bi", "Te", "Te", "Bi", "Te", "Te"],
  "positions": [
    [0.0, 0.0, -15.478005952994366],
    [-2.1626151356550108e-8, -2.497174502729786, -19.231387344022224],
    [0.0, 0.0, -20.97098872567517],
    [2.1626165678598444, -1.248587232636096, -17.127385021358627],
    [2.1626165678598444, -1.248587232636096, -11.724624500098221],
    [-2.1626151356550108e-8, -2.497174502729786, -13.828627316570913],
    [0.0, 0.0, -9.985023649239672]
  ],
  "vdw gap": 2.1040028164726916,
  "bond length deviation": [
    ["Ge", 1.313839361716277e-7],
    ["Bi", 0.11594172485990822]
  ],
  "bond angle deviation": [
    ["Ge", 2.6567778274566387],
    ["Bi", 4.260704085892854]
  ],
  "mass density": 4.719900182749124,
  "total energy": -192.7407006,
  "cohesive energy": 5.686388815714281,
  "born effective charge tensor": 11.970338571428572,
  "born effective charge q_xy": 5.858427142857143,
  "born effective charge q_z": 0.2534842857142857,
  "dielectric constant XY": 12.839931,
  "dielectric constant Z": 1.756647,
  "bader charge": [
    ["Ge", 14.0, 1.258725],
    ["Bi", 5.0, 1.364695],
    ["Te", 6.0, 1.439452],
    ["Te", 6.0, 1.486457],
    ["Bi", 5.0, 1.364695],
    ["Te", 6.0, 1.486457],
    ["Te", 6.0, 6.386126]
  ],
  "density of states at fermi": 0.009939,
  "vbm": 0.9553,
  "cbm": -0.4798,
  "band gap": 0.4755,
  "vbm soc": 0,
  "cbm soc": 0,
  "band gap soc": 0,
  "KPath": [
    "0.5000 0.0000 0.0000 ! M",
    "0.0000 0.0000 0.0000 ! G",
    "0.0000 0.0000 0.0000 ! G",
    "0.3333 0.3333 0.0000 ! K",
    "0.3333 0.3333 0.0000 ! K",
    "0.5000 0.0000 0.0000 ! M"
  ],
  "band locations": "/home/gtown/Documents/carbon/mpAll/monoFromMP/calcs/dir-Bi2GeTe4-P_3m1/scf/band",
  "band soc location": "/home/gtown/Documents/carbon/mpAll/monoFromMP/calcs/dir-Bi2GeTe4-P_3m1/scf_soc/band_soc",
  "dos location": "/home/gtown/Documents/carbon/mpAll/monoFromMP/calcs/dir-Bi2GeTe4-P_3m1/scf/dos"
}
