{"formula": "Bi2MnTe4", "spacegroup": "P-3m1 (164)", "cell": {"array": [[4.173128861862598, -1e-16, 0.0], [-2.0865644309312983, -3.614035607639051, 0.0], [0.0, 0.0, -30.8817368411192]]}, "symbols": ["Mn", "Bi", "Bi", "Te", "Te", "Te", "Te"], "positions": [[0.0, 0.0, -15.4408684205596], [4.173130746098343e-08, -2.409357047665786, -11.973724294239805], [2.0865644517969306, -1.2046785238329059, -18.908012956105697], [0.0, 0.0, -10.178497370424125], [2.0865644517969306, -1.2046785238329059, -14.215533666356588], [0.0, 0.0, -20.70323947069507], [4.173130746098343e-08, -2.409357047665786, -16.666203583988914]], "vdw gap": 2.2418093721167835, "bond length deviation": [["Bi", 0.14955082387366755], ["Mn", 0.7252638132698103]], "bond angle deviation": [["Bi", 7.520848791880326], ["Mn", 25.319746531446878]], "mass density": 5.10689974988736, "total energy": -191.3569799, "cohesive energy": 5.999971357931031, "born effective charge tensor": 9.850267142857145, "born effective charge q_xy": 4.774885714285715, "born effective charge q_z": 0.3004957142857143, "dielectric constant XY": 37.086868, "dielectric constant Z": 1.791437, "bader charge": [["Mn", 7.0, 1.03069], ["Bi", 5.0, 1.349199], ["Bi", 5.0, 1.349199], ["Te", 6.0, 1.434618], ["Te", 6.0, 1.402421], ["Te", 6.0, 1.434618], ["Te", 6.0, 1.402421]], "density of states at fermi": 6.634, "vbm": 0, "cbm": 0, "band gap": 0, "vbm soc": 0, "cbm soc": 0, "band gap soc": 0, "KPath": ["0.5000 0.0000 0.0000 ! M", "0.0000 0.0000 0.0000 ! G", "0.0000 0.0000 0.0000 ! G", "0.3333 0.3333 0.0000 ! K", "0.3333 0.3333 0.0000 ! K", "0.5000 0.0000 0.0000 ! M"], "band locations": "/home/gtown/Documents/carbon/mpAll/monoFromMP/calcs/dir-Bi2MnTe4-P_3m1/scf/band", "band soc location": "/home/gtown/Documents/carbon/mpAll/monoFromMP/calcs/dir-Bi2MnTe4-P_3m1/scf_soc/band_soc", "dos location": "/home/gtown/Documents/carbon/mpAll/monoFromMP/calcs/dir-Bi2MnTe4-P_3m1/scf/dos"}
