{"formula": "Bi2PbSe4", "spacegroup": "P-3m1 (164)", "cell": {"array": [[4.183426812064929, 4e-16, 0.0], [6.275140218097392, 3.622953894121178, 0.0], [0.0, 0.0, 30.576967020833024]]}, "symbols": ["Bi", "Se", "Se", "Bi", "Pb", "Se", "Se"], "positions": [[0.0, 0.0, 11.511248741570324], [2.091713385115343, 1.2076512859638873, 9.994074243268622], [4.183426770230642, 2.4153025719277488, 13.445686380607103], [4.183426770230642, 2.4153025719277488, 19.065718287747664], [2.091713385115343, 1.2076512859638873, 15.288483503629731], [0.0, 0.0, 17.131280618302657], [2.091713385115343, 1.2076512859638873, 20.582892797789484]], "vdw gap": 1.934437669445007, "bond length deviation": [["Bi", 0.12647849267269934], ["Pb", 0.5981672795011331], ["Se", 0.10646261434205394]], "bond angle deviation": [["Bi", 3.3581698678284333], ["Pb", 21.916569562354745], ["Se", 4.058011738954782]], "mass density": 4.9576672510707525, "total energy": -172.13365975, "cohesive energy": 8.343180396249997, "born effective charge tensor": 10.711281428571429, "born effective charge q_xy": 5.11893, "born effective charge q_z": 0.4734214285714286, "dielectric constant XY": 8.94994, "dielectric constant Z": 1.672925, "bader charge": [["Bi", 5.0, 3.993118], ["Se", 6.0, 6.598512], ["Se", 6.0, 6.820509], ["Bi", 5.0, 3.993123], ["Pb", 4.0, 3.175715], ["Se", 6.0, 6.820525], ["Se", 6.0, 6.598498]], "density of states at fermi": 0.0, "vbm": 0.9011, "cbm": -1.8184, "band gap": -0.9173, "vbm soc": -1.7837, "cbm soc": -1.2713, "band gap soc": 0.5124, "KPath": ["0.5000 0.5000 0.0000 ! M", "0.0000 0.0000 0.0000 ! G", "0.0000 0.0000 0.0000 ! G", "0.3333 0.0000 0.0000 ! K", "0.3333 0.0000 0.0000 ! K", "0.5000 0.5000 0.0000 ! M"], "band locations": "/home/gtown/Documents/carbon/mpAll/monoFromMP/calcs/dir-Bi2PbSe4-P_3m1/scf/band", "band soc location": "/home/gtown/Documents/carbon/mpAll/monoFromMP/calcs/dir-Bi2PbSe4-P_3m1/scf_soc/band_soc", "dos location": "/home/gtown/Documents/carbon/mpAll/monoFromMP/calcs/dir-Bi2PbSe4-P_3m1/scf/dos"}