{"formula": "Bi2PbTe4", "spacegroup": "P-3m1 (164)", "cell": {"array": [[4.42689075617389, 4e-16, 0.0], [-2.2134453780869436, -3.8337998546250924, 0.0], [0.0, 0.0, -31.379257275304692]]}, "symbols": ["Bi", "Te", "Te", "Pb", "Bi", "Te", "Te"], "positions": [[0.0, 0.0, -19.6819042282927], [4.42689278512764e-08, -2.555866544191385, -17.636876177618678], [2.2134454002213855, -1.2779332720957057, -21.361948558710605], [2.2134454002213855, -1.2779332720957057, -15.689630681862578], [4.42689278512764e-08, -2.555866544191385, -11.69735062203202], [0.0, 0.0, -13.742380655948727], [2.2134454002213855, -1.2779332720957057, -10.017309539101117]], "vdw gap": 2.0450300339167065, "bond length deviation": [["Bi", 0.1121348991289739], ["Pb", 1.5038003864633086e-06]], "bond angle deviation": [["Bi", 2.947555103439255], ["Pb", 3.0476040180586548]], "mass density": 4.997030518071538, "total energy": -186.67779045, "cohesive energy": 12.611541198571425, "born effective charge tensor": 11.363050000000001, "born effective charge q_xy": 5.49286, "born effective charge q_z": 0.37733000000000005, "dielectric constant XY": 11.56925, "dielectric constant Z": 1.762903, "bader charge": [["Bi", 5.0, 1.363692], ["Te", 6.0, 1.560512], ["Te", 6.0, 1.458991], ["Pb", 4.0, 1.445315], ["Bi", 5.0, 1.363694], ["Te", 6.0, 1.56051], ["Te", 6.0, 1.458996]], "density of states at fermi": 0.0, "vbm": 1.0365, "cbm": -0.8221, "band gap": 0.2144, "vbm soc": -0.7272, "cbm soc": -0.3559, "band gap soc": 0.37129999999999996, "KPath": ["0.5000 0.0000 0.0000 ! M", "0.0000 0.0000 0.0000 ! G", "0.0000 0.0000 0.0000 ! G", "0.3333 0.3333 0.0000 ! K", "0.3333 0.3333 0.0000 ! K", "0.5000 0.0000 0.0000 ! M"], "band locations": "/home/gtown/Documents/carbon/mpAll/monoFromMP/calcs/dir-Bi2PbTe4-P_3m1/scf/band", "band soc location": "/home/gtown/Documents/carbon/mpAll/monoFromMP/calcs/dir-Bi2PbTe4-P_3m1/scf_soc/band_soc", "dos location": "/home/gtown/Documents/carbon/mpAll/monoFromMP/calcs/dir-Bi2PbTe4-P_3m1/scf/dos"}