{"formula": "Bi2Pb2Se5", "spacegroup": "P-3m1 (164)", "cell": {"array": [[4.2076949005319175, -1e-16, 0.0], [-2.1038474502659574, -3.6439706752348773, 0.0], [0.0, 0.0, -34.17789731394922]]}, "symbols": ["Bi", "Pb", "Se", "Se", "Se", "Bi", "Pb", "Se", "Se"], "positions": [[0.0, 0.0, -22.682042648869842], [2.1038474713044204, -1.2146568795983979, -18.93913168916789], [-2.1038460340299047e-08, -2.4293137956364794, -20.751734657732847], [0.0, 0.0, -17.08894865008271], [2.1038474713044204, -1.2146568795983979, -24.183959308512115], [0.0, 0.0, -11.49585466640304], [-2.1038460340299047e-08, -2.4293137956364794, -15.23876562147498], [-2.1038460340299047e-08, -2.4293137956364794, -9.993938008582601], [2.1038474713044204, -1.2146568795983979, -13.426162661945446]], "vdw gap": 1.930307995542405, "bond length deviation": [["Bi", 0.12885790133610495], ["Pb", 0.5952691590336541], ["Se", 0.09507222574757701]], "bond angle deviation": [["Bi", 3.4417252629109343], ["Pb", 22.941742206159475], ["Se", 3.53512015750411]], "mass density": 4.964873261537315, "total energy": -218.21792972, "cohesive energy": 9.212743016076391, "born effective charge tensor": 10.41644, "born effective charge q_xy": 4.778231111111111, "born effective charge q_z": 0.8599777777777777, "dielectric constant XY": 9.097804, "dielectric constant Z": 1.855532, "bader charge": [["Bi", 5.0, 1.282494], ["Pb", 4.0, 1.370023], ["Se", 6.0, 1.41489], ["Se", 6.0, 1.429954], ["Se", 6.0, 1.313946], ["Bi", 5.0, 1.282494], ["Pb", 4.0, 1.370023], ["Se", 6.0, 6.596183], ["Se", 6.0, 1.41489]], "density of states at fermi": 0.002926, "vbm": 0.7712, "cbm": -1.1192, "band gap": -0.348, "vbm soc": -1.1118, "cbm soc": -0.7045, "band gap soc": 0.4072999999999999, "KPath": ["0.5000 0.0000 0.0000 ! M", "0.0000 0.0000 0.0000 ! G", "0.0000 0.0000 0.0000 ! G", "0.3333 0.3333 0.0000 ! K", "0.3333 0.3333 0.0000 ! K", "0.5000 0.0000 0.0000 ! M"], "band locations": "/home/gtown/Documents/carbon/mpAll/monoFromMP/calcs/dir-Bi2Pb2Se5-P_3m1/scf/band", "band soc location": "/home/gtown/Documents/carbon/mpAll/monoFromMP/calcs/dir-Bi2Pb2Se5-P_3m1/scf_soc/band_soc", "dos location": "/home/gtown/Documents/carbon/mpAll/monoFromMP/calcs/dir-Bi2Pb2Se5-P_3m1/scf/dos"}