{"formula": "Bi2Se2Te", "spacegroup": "P3m1 (156)", "cell": {"array": [[4.209412875335915, 1e-16, 0.0], [-2.1047064376679567, -3.6454584850582017, 0.0], [0.0, 0.0, -27.101408189252567]]}, "symbols": ["Bi", "Te", "Bi", "Se", "Se"], "positions": [[0.0, 0.0, -11.802642555595243], [4.209414784178572e-08, -2.4303056324024004, -9.998730059030756], [4.209414784178572e-08, -2.4303056324024004, -15.592378782844362], [2.104706458715009, -1.215152816201213, -13.693321040654832], [0.0, 0.0, -17.10671045176755]], "vdw gap": 1.8990577421895303, "bond length deviation": [["Bi", 0.09340903544668795], ["Se", 0.1091306402226705]], "bond angle deviation": [["Bi", 3.0390408582279944], ["Se", 4.043340147142032]], "mass density": 5.089745551969112, "total energy": -129.69999385, "cohesive energy": 8.268979682374994, "born effective charge tensor": 10.432599999999997, "born effective charge q_xy": 5.090393999999999, "born effective charge q_z": 0.25181200000000004, "dielectric constant XY": 9.152361, "dielectric constant Z": 1.518531, "bader charge": [["Bi", 5.0, 1.362644], ["Te", 6.0, 6.390055], ["Bi", 5.0, 1.284421], ["Se", 6.0, 1.433659], ["Se", 6.0, 1.330796]], "density of states at fermi": 0.0, "vbm": 0.9151000000000002, "cbm": -2.083, "band gap": -1.1679, "vbm soc": -1.9575, "cbm soc": -1.561, "band gap soc": 0.3965000000000001, "KPath": ["0.5000 0.0000 0.0000 ! M", "0.0000 0.0000 0.0000 ! G", "0.0000 0.0000 0.0000 ! G", "0.3333 0.3333 0.0000 ! K", "0.3333 0.3333 0.0000 ! K", "0.5000 0.0000 0.0000 ! M"], "band locations": "/home/gtown/Documents/carbon/mpAll/monoFromMP/calcs/dir-Bi2Se2Te-P3m1/scf/band", "band soc location": "/home/gtown/Documents/carbon/mpAll/monoFromMP/calcs/dir-Bi2Se2Te-P3m1/scf_soc/band_soc", "dos location": "/home/gtown/Documents/carbon/mpAll/monoFromMP/calcs/dir-Bi2Se2Te-P3m1/scf/dos"}