{"formula": "Bi2S2Te", "spacegroup": "P3m1 (156)", "cell": {"array": [[4.123529738140029, -1e-15, 0.0], [6.185294607210044, 3.5710815064898593, 0.0], [0.0, 0.0, 26.72324597850279]]}, "symbols": ["Bi", "Te", "Bi", "S", "S"], "positions": [[0.0, 0.0, 11.795071956062637], [2.06176491030533, 1.190360525970507, 9.949336212650808], [2.06176491030533, 1.190360525970507, 15.41413066719594], [4.123529758757665, 2.3807210162301704, 13.591953982019868], [0.0, 0.0, 16.776777764565193]], "vdw gap": 1.8457357434118293, "bond length deviation": [["Bi", 0.6660466381032868], ["S", 0.12381017355101291]], "bond angle deviation": [["Bi", 24.298869592103635], ["S", 4.050553024419633]], "mass density": 4.773790750399587, "total energy": -122.36113573, "cohesive energy": 7.225742104874996, "born effective charge tensor": 10.310116, "born effective charge q_xy": 5.005798, "born effective charge q_z": 0.29852, "dielectric constant XY": 9.137666, "dielectric constant Z": 1.490945, "bader charge": [["Bi", 5.0, 4.139528], ["Te", 6.0, 6.387878], ["Bi", 5.0, 3.784115], ["S", 6.0, 6.941213], ["S", 6.0, 6.747265]], "density of states at fermi": 0.0, "vbm": 1.0889, "cbm": -2.1046, "band gap": -1.0157, "vbm soc": -1.8242, "cbm soc": -1.4155, "band gap soc": 0.40870000000000006, "KPath": ["0.5000 0.5000 0.0000 ! M", "0.0000 0.0000 0.0000 ! G", "0.0000 0.0000 0.0000 ! G", "0.3333 0.0000 0.0000 ! K", "0.3333 0.0000 0.0000 ! K", "0.5000 0.5000 0.0000 ! M"], "band locations": "/home/gtown/Documents/carbon/mpAll/monoFromMP/calcs/dir-Bi2S2Te-P3m1/scf/band", "band soc location": "/home/gtown/Documents/carbon/mpAll/monoFromMP/calcs/dir-Bi2S2Te-P3m1/scf_soc/band_soc", "dos location": "/home/gtown/Documents/carbon/mpAll/monoFromMP/calcs/dir-Bi2S2Te-P3m1/scf/dos"}