{"formula": "Bi2SnTe4", "spacegroup": "P-3m1 (164)", "cell": {"array": [[4.399264735842687, -0.0, 0.0], [-2.1996323679213425, -3.8098750192128046, 0.0], [0.0, 0.0, -31.221746463996897]]}, "symbols": ["Sn", "Bi", "Bi", "Te", "Te", "Te", "Te"], "positions": [[0.0, 0.0, -15.610873231998449], [4.399266714114221e-08, -2.539916654076025, -11.692560972050595], [2.1996323899176535, -1.2699583270380261, -19.529185925604892], [0.0, 0.0, -9.997828495190612], [2.1996323899176535, -1.2699583270380261, -13.76385864273444], [4.399266714114221e-08, -2.539916654076025, -17.457888254921045], [0.0, 0.0, -21.223917968806283]], "vdw gap": 2.0712976706838475, "bond length deviation": [["Bi", 0.11698450948277218], ["Sn", 1.4194290058903147e-07]], "bond angle deviation": [["Bi", 3.3249579629105033], ["Sn", 1.1279014768523195]], "mass density": 4.698060194736706, "total energy": -184.46666514, "cohesive energy": 8.421851909999996, "born effective charge tensor": 11.330847142857143, "born effective charge q_xy": 5.537058571428572, "born effective charge q_z": 0.25673, "dielectric constant XY": 11.671466, "dielectric constant Z": 1.765814, "bader charge": [["Sn", 4.0, 1.366431], ["Bi", 5.0, 1.381154], ["Bi", 5.0, 1.381154], ["Te", 6.0, 6.39383], ["Te", 6.0, 1.535882], ["Te", 6.0, 1.535882], ["Te", 6.0, 1.449216]], "density of states at fermi": 0.003775, "vbm": 0.7363, "cbm": -0.4493, "band gap": 0.287, "vbm soc": 0, "cbm soc": 0, "band gap soc": 0, "KPath": ["0.5000 0.0000 0.0000 ! M", "0.0000 0.0000 0.0000 ! G", "0.0000 0.0000 0.0000 ! G", "0.3333 0.3333 0.0000 ! K", "0.3333 0.3333 0.0000 ! K", "0.5000 0.0000 0.0000 ! M"], "band locations": "/home/gtown/Documents/carbon/mpAll/monoFromMP/calcs/dir-Bi2SnTe4-P_3m1/scf/band", "band soc location": "/home/gtown/Documents/carbon/mpAll/monoFromMP/calcs/dir-Bi2SnTe4-P_3m1/scf_soc/band_soc", "dos location": "/home/gtown/Documents/carbon/mpAll/monoFromMP/calcs/dir-Bi2SnTe4-P_3m1/scf/dos"}