{"formula": "Bi2Se3", "spacegroup": "P-3m1 (164)", "cell": {"array": [[4.128758342876053, -6e-16, 0.0], [-6.19313751431408, -3.5756096110176023, 0.0], [0.0, 0.0, -27.040324714399627]]}, "symbols": ["Bi", "Bi", "Se", "Se", "Se"], "positions": [[0.0, 0.0, -15.469203720421214], [1.453427735952018e-14, -2.3837397168409944, -11.571120993978417], [1.453427735952018e-14, -2.3837397168409944, -17.03175830594147], [2.064379171438012, -1.1918698226644113, -13.520162506843226], [0.0, 0.0, -10.008566408458158]], "vdw gap": 1.9490415128648095, "bond length deviation": [["Bi", 0.11953543153121471], ["Se", 0.11953543153121467]], "bond angle deviation": [["Bi", 3.429726763191554], ["Se", 5.058941931854967]], "mass density": 4.943847620944215, "total energy": -126.06021897, "cohesive energy": 6.775801842562492, "born effective charge tensor": 10.848080000000001, "born effective charge q_xy": 5.290290000000001, "born effective charge q_z": 0.2675, "dielectric constant XY": 8.007351, "dielectric constant Z": 1.492892, "bader charge": [["Bi", 5.0, 1.264657], ["Bi", 5.0, 1.264655], ["Se", 6.0, 1.313317], ["Se", 6.0, 1.419782], ["Se", 6.0, 1.313319]], "density of states at fermi": 0.001489, "vbm": 0.8902000000000001, "cbm": -2.4876, "band gap": -1.5974, "vbm soc": -2.4558, "cbm soc": -1.9593, "band gap soc": 0.49649999999999994, "KPath": ["0.5000 -0.5000 0.0000 ! M", "0.0000 0.0000 0.0000 ! G", "0.0000 0.0000 0.0000 ! G", "0.3333 0.0000 0.0000 ! K", "0.3333 0.0000 0.0000 ! K", "0.5000 -0.5000 0.0000 ! M"], "band locations": "/home/gtown/Documents/carbon/mpAll/monoFromMP/calcs/dir-Bi2Se3-P_3m1/scf/band", "band soc location": "/home/gtown/Documents/carbon/mpAll/monoFromMP/calcs/dir-Bi2Se3-P_3m1/scf_soc/band_soc", "dos location": "/home/gtown/Documents/carbon/mpAll/monoFromMP/calcs/dir-Bi2Se3-P_3m1/scf/dos"}