{"formula": "Bi2Se3", "spacegroup": "P3m1 (156)", "cell": {"array": [[4.129232175580629, 2e-16, 0.0], [2.064616087790315, -3.5760199621769106, 0.0], [0.0, 0.0, -27.118022833175505]]}, "symbols": ["Bi", "Se", "Se", "Bi", "Se"], "positions": [[0.0, 0.0, -15.497576604343127], [4.12923221687294, -2.384013284277797, -17.0605144790825], [2.0646161084364922, -1.192006642138911, -13.560542413383173], [4.12923221687294, -2.384013284277797, -11.621508673751485], [0.0, 0.0, -10.059250335363899]], "vdw gap": 1.9390337396316877, "bond length deviation": [["Bi", 0.11588289804659295], ["Se", 0.11588289804659299]], "bond angle deviation": [["Bi", 3.302722857910995], ["Se", 4.866035426004605]], "mass density": 4.960368869015892, "total energy": -126.06268602, "cohesive energy": 6.775308432562497, "born effective charge tensor": 10.459376, "born effective charge q_xy": 5.100886, "born effective charge q_z": 0.257604, "dielectric constant XY": 7.419476, "dielectric constant Z": 1.489607, "bader charge": [["Bi", 5.0, 1.280097], ["Se", 6.0, 1.316966], ["Se", 6.0, 1.422297], ["Bi", 5.0, 1.292499], ["Se", 6.0, 1.320047]], "density of states at fermi": 0.0, "vbm": 0.8767000000000003, "cbm": -2.5005, "band gap": -1.6238, "vbm soc": -2.4678, "cbm soc": -1.9804, "band gap soc": 0.48740000000000006, "KPath": ["0.5000 0.0000 0.0000 ! M", "0.0000 0.0000 0.0000 ! G", "0.0000 0.0000 0.0000 ! G", "0.3333 -0.3333 0.0000 ! K", "0.3333 -0.3333 0.0000 ! K", "0.5000 0.0000 0.0000 ! M"], "band locations": "/home/gtown/Documents/carbon/mpAll/monoFromMP/calcs/dir-Bi2Se3-P3m1/scf/band", "band soc location": "/home/gtown/Documents/carbon/mpAll/monoFromMP/calcs/dir-Bi2Se3-P3m1/scf_soc/band_soc", "dos location": "/home/gtown/Documents/carbon/mpAll/monoFromMP/calcs/dir-Bi2Se3-P3m1/scf/dos"}