{"formula": "Bi2Te3", "spacegroup": "P3m1 (156)", "cell": {"array": [[4.381004108684537, -9e-16, 0.0], [-6.571506163026805, -3.79406085220481, 0.0], [0.0, 0.0, -27.422542753777655]]}, "symbols": ["Bi", "Bi", "Te", "Te", "Te"], "positions": [[0.0, 0.0, -11.652551835666191], [-4.3810041305895435, -2.529373914116735, -15.762342643966754], [-2.1905020981523284, -1.2646869760286867, -13.706482724935274], [-4.3810041305895435, -2.529373914116735, -9.934349093569976], [0.0, 0.0, -17.479302842951025]], "vdw gap": 2.05585991903148, "bond length deviation": [["Bi", 0.10521252395503904]], "bond angle deviation": [["Bi", 3.2360919304175546]], "mass density": 5.017835009019333, "total energy": -136.89561552, "cohesive energy": 11.272120979999993, "born effective charge tensor": 11.912477999999998, "born effective charge q_xy": 5.834103999999999, "born effective charge q_z": 0.24427000000000004, "dielectric constant XY": 11.678744, "dielectric constant Z": 1.567208, "bader charge": [["Bi", 5.0, 1.343934], ["Bi", 5.0, 1.349696], ["Te", 6.0, 1.538302], ["Te", 6.0, 6.400283], ["Te", 6.0, 1.440887]], "density of states at fermi": 0.0, "vbm": 0.9678, "cbm": -1.5041, "band gap": -0.5363, "vbm soc": 0, "cbm soc": 0, "band gap soc": 0, "KPath": ["0.5000 -0.5000 0.0000 ! M", "0.0000 0.0000 0.0000 ! G", "0.0000 0.0000 0.0000 ! G", "0.3333 0.0000 0.0000 ! K", "0.3333 0.0000 0.0000 ! K", "0.5000 -0.5000 0.0000 ! M"], "band locations": "/home/gtown/Documents/carbon/mpAll/monoFromMP/calcs/dir-Bi2Te3-P3m1/scf/band", "band soc location": "/home/gtown/Documents/carbon/mpAll/monoFromMP/calcs/dir-Bi2Te3-P3m1/scf_soc/band_soc", "dos location": "/home/gtown/Documents/carbon/mpAll/monoFromMP/calcs/dir-Bi2Te3-P3m1/scf/dos"}