{"formula": "Bi2Te3", "spacegroup": "P-3m1 (164)", "cell": {"array": [[4.372759980619531, -1e-16, 0.0], [-2.1863799903097645, -3.786921227868463, 0.0], [0.0, 0.0, -27.574703417218565]]}, "symbols": ["Bi", "Bi", "Te", "Te", "Te"], "positions": [[0.0, 0.0, -11.737195528980008], [4.372761963273414e-08, -2.5246141266661564, -15.837507888238555], [2.1863800121735517, -1.2623070633330917, -13.787351708609282], [4.372761963273414e-08, -2.5246141266661564, -10.011835062892079], [0.0, 0.0, -17.56286835432649]], "vdw gap": 2.0501561796292744, "bond length deviation": [["Bi", 0.10148852089329198]], "bond angle deviation": [["Bi", 3.238575820002727]], "mass density": 5.0365763235639545, "total energy": -136.89079832, "cohesive energy": 11.273084419999998, "born effective charge tensor": 11.480692, "born effective charge q_xy": 5.61803, "born effective charge q_z": 0.24463200000000002, "dielectric constant XY": 10.993006, "dielectric constant Z": 1.563543, "bader charge": [["Bi", 5.0, 1.377747], ["Bi", 5.0, 1.377745], ["Te", 6.0, 1.560182], ["Te", 6.0, 1.457818], ["Te", 6.0, 1.45782]], "density of states at fermi": 0.0, "vbm": 0.9881000000000001, "cbm": -1.5074, "band gap": -0.5193, "vbm soc": 0, "cbm soc": 0, "band gap soc": 0, "KPath": ["0.5000 0.0000 0.0000 ! M", "0.0000 0.0000 0.0000 ! G", "0.0000 0.0000 0.0000 ! G", "0.3333 0.3333 0.0000 ! K", "0.3333 0.3333 0.0000 ! K", "0.5000 0.0000 0.0000 ! M"], "band locations": "/home/gtown/Documents/carbon/mpAll/monoFromMP/calcs/dir-Bi2Te3-P_3m1/scf/band", "band soc location": "/home/gtown/Documents/carbon/mpAll/monoFromMP/calcs/dir-Bi2Te3-P_3m1/scf_soc/band_soc", "dos location": "/home/gtown/Documents/carbon/mpAll/monoFromMP/calcs/dir-Bi2Te3-P_3m1/scf/dos"}