{"formula": "Bi4", "spacegroup": "C2/m (12)", "cell": {"array": [[7.383183641298625, 0.0, 0.0], [0.0, -4.296501415928187, 0.0], [0.0, 0.0, -21.781691488772154]]}, "symbols": ["Bi", "Bi", "Bi", "Bi"], "positions": [[-0.0008118842533235711, 0.0, -11.755472780957927], [2.4643391923435574, 0.0, -10.026218707814225], [3.6907799363959892, -2.1482507079640936, -11.755472780957927], [6.15593101299287, -2.1482507079640936, -10.026218707814225]], "vdw gap": 1.7292540731437018, "bond length deviation": [["Bi", 0.6042732645111843]], "bond angle deviation": [["Bi", 23.61892208663692]], "mass density": 7.619338764374079, "total energy": -106.24302858, "cohesive energy": 31.941516599999996, "born effective charge tensor": 0.0, "born effective charge q_xy": 0.0, "born effective charge q_z": 0.0, "dielectric constant XY": 36.40832570947542, "dielectric constant Z": 1.281391, "bader charge": [["Bi", 5.0, 1.397379], ["Bi", 5.0, 1.396098], ["Bi", 5.0, 1.397379], ["Bi", 5.0, 1.396098]], "density of states at fermi": 0.0, "vbm": 0.5388999999999997, "cbm": -2.1468, "band gap": -1.6079, "vbm soc": -1.9602, "cbm soc": -1.4594, "band gap soc": 0.5007999999999999, "KPath": ["-0.5000 0.0000 0.0000 ! Y", "0.0000 0.0000 0.0000 ! G", "0.0000 0.0000 0.0000 ! G", "-0.5000 -0.5000 0.0000 ! S", "-0.5000 -0.5000 0.0000 ! S", "0.0000 -0.5000 0.0000 ! X", "0.0000 -0.5000 0.0000 ! X", "-0.5000 0.0000 0.0000 ! Y"], "band locations": "/home/gtown/Documents/carbon/mpAll/monoFromMP/calcs/dir-Bi4-Cmcm/scf/band", "band soc location": "/home/gtown/Documents/carbon/mpAll/monoFromMP/calcs/dir-Bi4-Cmcm/scf_soc/band_soc", "dos location": "/home/gtown/Documents/carbon/mpAll/monoFromMP/calcs/dir-Bi4-Cmcm/scf/dos"}