{"formula": "Bi4Se6", "spacegroup": "Cm (8)", "cell": {"array": [[7.160574173897049, 0.0, 0.0], [0.0, -4.126616769741153, 0.0], [0.0, 0.0, -26.898885487100728]]}, "symbols": ["Bi", "Bi", "Se", "Se", "Bi", "Bi", "Se", "Se", "Se", "Se"], "positions": [[0.004723720588525552, 0.0, -11.508995436470114], [3.58501080753705, -2.0633083848705764, -11.508995436470114], [2.38919724001884, 0.0, -9.947654771221394], [5.969484326967365, -2.0633083848705764, -9.947654771221394], [2.3912469904420064, 0.0, -15.389882720073176], [5.97153407739053, -2.0633083848705764, -15.389882720073176], [4.77818688462929, 0.0, -13.449445677317193], [0.006672149876650035, 0.0, -16.95123511266994], [1.1978997976807655, -2.0633083848705764, -13.449445677317193], [3.5869592368251744, -2.0633083848705764, -16.95123511266994]], "vdw gap": 1.9404502408470794, "bond length deviation": [["Bi", 0.11444399958763804], ["Se", 0.114443999587638]], "bond angle deviation": [["Bi", 3.2934826072938255], ["Se", 4.8332992243931425]], "mass density": 4.955527989473166, "total energy": -252.14012192, "cohesive energy": 6.773833444562501, "born effective charge tensor": 10.407140000000002, "born effective charge q_xy": 7.167758257457348, "born effective charge q_z": 0.27042600000000006, "dielectric constant XY": 10.546778829408911, "dielectric constant Z": 1.49499, "bader charge": [["Bi", 5.0, 1.289528], ["Bi", 5.0, 1.289528], ["Se", 6.0, 6.589833], ["Se", 6.0, 6.589833], ["Bi", 5.0, 1.2952], ["Bi", 5.0, 1.2952], ["Se", 6.0, 1.448583], ["Se", 6.0, 1.345984], ["Se", 6.0, 1.448583], ["Se", 6.0, 1.345984]], "density of states at fermi": 0.0, "vbm": 0.8911999999999998, "cbm": -2.4408, "band gap": -1.5496, "vbm soc": -2.4139, "cbm soc": -1.9142, "band gap soc": 0.49970000000000003, "KPath": ["-0.5000 0.0000 0.0000 ! Y", "0.0000 0.0000 0.0000 ! G", "0.0000 0.0000 0.0000 ! G", "-0.5000 -0.5000 0.0000 ! S", "-0.5000 -0.5000 0.0000 ! S", "0.0000 -0.5000 0.0000 ! X", "0.0000 -0.5000 0.0000 ! X", "-0.5000 0.0000 0.0000 ! Y"], "band locations": "/home/gtown/Documents/carbon/mpAll/monoFromMP/calcs/dir-Bi4Se6-C2_m/scf/band", "band soc location": "/home/gtown/Documents/carbon/mpAll/monoFromMP/calcs/dir-Bi4Se6-C2_m/scf_soc/band_soc", "dos location": "/home/gtown/Documents/carbon/mpAll/monoFromMP/calcs/dir-Bi4Se6-C2_m/scf/dos"}