{"formula": "Bi4Se6", "spacegroup": "Cm (8)", "cell": {"array": [[7.1552662738880946, 0.0, 0.0], [0.0, -4.129946690721399, 0.0], [0.0, 0.0, -26.88397878869895]]}, "symbols": ["Bi", "Bi", "Bi", "Bi", "Se", "Se", "Se", "Se", "Se", "Se"], "positions": [[0.0005033635269827367, 0.0, -15.374158336938239], [4.779818907258961, 0.0, -11.496978139427567], [3.57813650047103, -2.0649733453606993, -15.374158336938239], [1.2021857703149137, -2.0649733453606993, -11.496978139427567], [0.0075452203176575245, 0.0, -9.936469985583994], [2.39017480388165, 0.0, -13.43664752659034], [4.772833125296701, 0.0, -16.93498044569245], [3.585178357261705, -2.0649733453606993, -9.936469985583994], [5.967807940825696, -2.0649733453606993, -13.43664752659034], [1.1951999883526536, -2.0649733453606993, -16.93498044569245]], "vdw gap": 1.9396693871627733, "bond length deviation": [["Bi", 0.11405281035022449], ["Se", 0.1140528103502245]], "bond angle deviation": [["Bi", 3.2740957934612474], ["Se", 4.8029984614827645]], "mass density": 4.958449113549042, "total energy": -252.14485795, "cohesive energy": 6.773359841562504, "born effective charge tensor": 10.429722000000002, "born effective charge q_xy": 7.170774116065574, "born effective charge q_z": 0.288716, "dielectric constant XY": 10.546874509994181, "dielectric constant Z": 1.494987, "bader charge": [["Bi", 5.0, 1.29168], ["Bi", 5.0, 1.288429], ["Bi", 5.0, 1.29168], ["Bi", 5.0, 1.288429], ["Se", 6.0, 6.589523], ["Se", 6.0, 1.448656], ["Se", 6.0, 1.342522], ["Se", 6.0, 6.589523], ["Se", 6.0, 1.448656], ["Se", 6.0, 1.342522]], "density of states at fermi": 0.003186, "vbm": 0.8892, "cbm": -2.4404, "band gap": -1.5512, "vbm soc": -2.4139, "cbm soc": -1.9148, "band gap soc": 0.4990999999999999, "KPath": ["-0.5000 0.0000 0.0000 ! Y", "0.0000 0.0000 0.0000 ! G", "0.0000 0.0000 0.0000 ! G", "-0.5000 -0.5000 0.0000 ! S", "-0.5000 -0.5000 0.0000 ! S", "0.0000 -0.5000 0.0000 ! X", "0.0000 -0.5000 0.0000 ! X", "-0.5000 0.0000 0.0000 ! Y"], "band locations": "/home/gtown/Documents/carbon/mpAll/monoFromMP/calcs/dir-Bi4Se6-Cm/scf/band", "band soc location": "/home/gtown/Documents/carbon/mpAll/monoFromMP/calcs/dir-Bi4Se6-Cm/scf_soc/band_soc", "dos location": "/home/gtown/Documents/carbon/mpAll/monoFromMP/calcs/dir-Bi4Se6-Cm/scf/dos"}