{"formula": "BiInSe3", "spacegroup": "P3m1 (156)", "cell": {"array": [[4.047292777312111, 0.0, 0.0], [2.023646388656056, -3.5050583617055637, 0.0], [0.0, 0.0, -26.685124403535642]]}, "symbols": ["In", "Bi", "Se", "Se", "Se"], "positions": [[0.0, 0.0, -11.31113631220145], [2.0236464088925357, -1.1683527755516674, -15.088782565408836], [0.0, 0.0, -16.68499174619937], [2.0236464088925357, -1.1683527755516674, -10.008989009993696], [4.047292757075632, -2.3367055861538963, -13.096873426542228]], "vdw gap": 1.9919091388666086, "bond length deviation": [["Bi", 0.131800234134692], ["Se", 0.15182693535280736]], "bond angle deviation": [["Bi", 4.557281574055826], ["Se", 5.58851776674822]], "mass density": 4.559746532373924, "total energy": -115.15976375, "cohesive energy": 1.771156213562503, "born effective charge tensor": 9.095263999999998, "born effective charge q_xy": 4.396255999999999, "born effective charge q_z": 0.302752, "dielectric constant XY": 6.644473, "dielectric constant Z": 1.471991, "bader charge": [["In", 3.0, 1.133161], ["Bi", 5.0, 1.268735], ["Se", 6.0, 1.316713], ["Se", 6.0, 1.282866], ["Se", 6.0, 1.428376]], "density of states at fermi": 0.0, "vbm": 1.1177999999999997, "cbm": -2.5342, "band gap": -1.4164, "vbm soc": -2.4796, "cbm soc": -1.665, "band gap soc": 0.8146, "KPath": ["0.5000 0.0000 0.0000 ! M", "0.0000 0.0000 0.0000 ! G", "0.0000 0.0000 0.0000 ! G", "0.3333 -0.3333 0.0000 ! K", "0.3333 -0.3333 0.0000 ! K", "0.5000 0.0000 0.0000 ! M"], "band locations": "/home/gtown/Documents/carbon/mpAll/monoFromMP/calcs/dir-BiInSe3-P3m1/scf/band", "band soc location": "/home/gtown/Documents/carbon/mpAll/monoFromMP/calcs/dir-BiInSe3-P3m1/scf_soc/band_soc", "dos location": "/home/gtown/Documents/carbon/mpAll/monoFromMP/calcs/dir-BiInSe3-P3m1/scf/dos"}