{"formula": "BiSbTe3", "spacegroup": "P3m1 (156)", "cell": {"array": [[4.323185125122209, -8e-16, 0.0], [-6.484777687683315, -3.7439881436188385, 0.0], [0.0, 0.0, -27.439884953138634]]}, "symbols": ["Sb", "Te", "Te", "Bi", "Te"], "positions": [[0.0, 0.0, -11.650624452216032], [1.475840912827931e-14, -2.4959920707859613, -13.621037947090601], [2.161592562561088, -1.24799599795311, -9.982768276154978], [2.161592562561088, -1.24799599795311, -15.706219047837617], [0.0, 0.0, -17.461155536527023]], "vdw gap": 2.0851811007470165, "bond length deviation": [["Sb", 0.0975295724101909], ["Bi", 0.11019307592333007]], "bond angle deviation": [["Sb", 2.639612885068365], ["Bi", 4.198097455277672]], "mass density": 4.609501632533738, "total energy": -135.13984129, "cohesive energy": 5.064084222999997, "born effective charge tensor": 12.365291999999998, "born effective charge q_xy": 6.073992, "born effective charge q_z": 0.217308, "dielectric constant XY": 12.614764, "dielectric constant Z": 1.566459, "bader charge": [["Sb", 5.0, 1.284186], ["Te", 6.0, 1.516707], ["Te", 6.0, 6.340796], ["Bi", 5.0, 1.344946], ["Te", 6.0, 1.429231]], "density of states at fermi": 0.0009477, "vbm": 0.7525000000000002, "cbm": -1.1281, "band gap": -0.3756, "vbm soc": 0, "cbm soc": 0, "band gap soc": 0, "KPath": ["0.5000 -0.5000 0.0000 ! M", "0.0000 0.0000 0.0000 ! G", "0.0000 0.0000 0.0000 ! G", "0.3333 0.0000 0.0000 ! K", "0.3333 0.0000 0.0000 ! K", "0.5000 -0.5000 0.0000 ! M"], "band locations": "/home/gtown/Documents/carbon/mpAll/monoFromMP/calcs/dir-BiSbTe3-P3m1/scf/band", "band soc location": "/home/gtown/Documents/carbon/mpAll/monoFromMP/calcs/dir-BiSbTe3-P3m1/scf_soc/band_soc", "dos location": "/home/gtown/Documents/carbon/mpAll/monoFromMP/calcs/dir-BiSbTe3-P3m1/scf/dos"}