{"formula": "BiSTe", "spacegroup": "P3m1 (156)", "cell": {"array": [[3.8492248280873205, -8e-16, 0.0], [-5.7738372421309805, -3.333526486001409, 0.0], [0.0, 0.0, -23.56747913981011]]}, "symbols": ["Bi", "Te", "S"], "positions": [[0.0, 0.0, -12.080576076740861], [-1.9246123947975482, -1.111175484222055, -9.68525208253335], [-3.8492248473334323, -2.2223510017793537, -13.623688779589658]], "vdw gap": 2.395323994207512, "bond length deviation": [["Bi", 1.3090096079722826e-08], ["S", 1.5808800468148832e-08]], "bond angle deviation": [["Bi", 1.6730471125076512e-07], ["S", 3.3884366531849407e-07]], "mass density": 4.535975363419846, "total energy": -75.39911685, "cohesive energy": 5.51813947739583, "born effective charge tensor": 6.322946666666667, "born effective charge q_xy": 3.0263533333333332, "born effective charge q_z": 0.27024, "dielectric constant XY": 10.14786, "dielectric constant Z": 1.385089, "bader charge": [["Bi", 5.0, 1.203523], ["Te", 6.0, 6.297338], ["S", 6.0, 1.225244]], "density of states at fermi": 2.288, "vbm": 0, "cbm": 0, "band gap": 0, "vbm soc": 0, "cbm soc": 0, "band gap soc": 0, "KPath": ["0.5000 -0.5000 0.0000 ! M", "0.0000 0.0000 0.0000 ! G", "0.0000 0.0000 0.0000 ! G", "0.3333 0.0000 0.0000 ! K", "0.3333 0.0000 0.0000 ! K", "0.5000 -0.5000 0.0000 ! M"], "band locations": "/home/gtown/Documents/carbon/mpAll/monoFromMP/calcs/dir-BiSTe-P3m1/scf/band", "band soc location": "/home/gtown/Documents/carbon/mpAll/monoFromMP/calcs/dir-BiSTe-P3m1/scf_soc/band_soc", "dos location": "/home/gtown/Documents/carbon/mpAll/monoFromMP/calcs/dir-BiSTe-P3m1/scf/dos"}