{"formula": "BiTe", "spacegroup": "P3m1 (156)", "cell": {"array": [[3.925535092914286, -6e-16, 0.0], [-5.888302639371428, -3.3996131139110766, 0.0], [0.0, 0.0, -21.80561996086868]]}, "symbols": ["Bi", "Te"], "positions": [[0.0, 0.0, -11.893300149601876], [1.4637117276605995e-14, -2.2664087199432874, -9.912319811266809]], "vdw gap": 1.9809803383350673, "bond length deviation": [["Bi", 1.4778210025368796e-08]], "bond angle deviation": [["Bi", 2.4192135340089346e-07]], "mass density": 6.365753028502297, "total energy": -54.4312511, "cohesive energy": 14.744123477499997, "born effective charge tensor": 8.221449999999999, "born effective charge q_xy": 4.06736, "born effective charge q_z": 0.08673, "dielectric constant XY": 13.779336, "dielectric constant Z": 1.294604, "bader charge": [["Bi", 5.0, 1.345133], ["Te", 6.0, 6.279285]], "density of states at fermi": 3.084, "vbm": 0, "cbm": 0, "band gap": 0, "vbm soc": 0, "cbm soc": 0, "band gap soc": 0, "KPath": ["0.5000 -0.5000 0.0000 ! M", "0.0000 0.0000 0.0000 ! G", "0.0000 0.0000 0.0000 ! G", "0.3333 0.0000 0.0000 ! K", "0.3333 0.0000 0.0000 ! K", "0.5000 -0.5000 0.0000 ! M"], "band locations": "/home/gtown/Documents/carbon/mpAll/monoFromMP/calcs/dir-BiTe-P_6m2/scf/band", "band soc location": "/home/gtown/Documents/carbon/mpAll/monoFromMP/calcs/dir-BiTe-P_6m2/scf_soc/band_soc", "dos location": "/home/gtown/Documents/carbon/mpAll/monoFromMP/calcs/dir-BiTe-P_6m2/scf/dos"}