{"formula": "Ge2", "spacegroup": "P-3m1 (164)", "cell": {"array": [[3.981041143117856, -9e-16, 0.0], [1.9905205715589276, 3.447682763451105, 0.0], [0.0, 0.0, 20.688228246836]]}, "symbols": ["Ge", "Ge"], "positions": [[0.0, 0.0, 10.666122253142197], [1.9905205516537345, 1.149227576324766, 10.022105993693803]], "vdw gap": 0.644016259448394, "bond length deviation": [["Ge", 1.714349795879908e-08]], "bond angle deviation": [["Ge", 6.217714658321323e-07]], "mass density": 8.214396105220718, "total energy": -54.11124675, "cohesive energy": -13.183645795, "born effective charge tensor": 0.0, "born effective charge q_xy": 0.0, "born effective charge q_z": 0.0, "dielectric constant XY": 12.920687, "dielectric constant Z": 1.196106, "bader charge": [["Ge", 14.0, 14.001193], ["Ge", 14.0, 13.998811]], "density of states at fermi": 0.0, "vbm": 0, "cbm": 0, "band gap": 0, "vbm soc": 0, "cbm soc": 0, "band gap soc": 0, "KPath": ["0.5000 0.0000 0.0000 ! M", "0.0000 0.0000 0.0000 ! G", "0.0000 0.0000 0.0000 ! G", "0.3333 -0.3333 0.0000 ! K", "0.3333 -0.3333 0.0000 ! K", "0.5000 0.0000 0.0000 ! M"], "band locations": "/home/gtown/Documents/carbon/mpAll/monoFromMP/calcs/dir_Ge2-P6_3_mmc-4/scf/band", "band soc location": "/home/gtown/Documents/carbon/mpAll/monoFromMP/calcs/dir_Ge2-P6_3_mmc-4/scf_soc/band_soc", "dos location": "/home/gtown/Documents/carbon/mpAll/monoFromMP/calcs/dir_Ge2-P6_3_mmc-4/scf/dos"}