{"formula": "Ge2S2", "spacegroup": "Pmn2_1 (31)", "cell": {"array": [[3.540923920955427, 0.0, 0.0], [0.0, -4.574409049639722, 0.0], [0.0, 0.0, -22.635814853543216]]}, "symbols": ["Ge", "Ge", "S", "S"], "positions": [[0.0, -0.00033064824081891316, -12.617298663165988], [1.7704619604777134, -2.28753517306068, -10.018516190377229], [0.0, -3.8975364772552354, -10.31217807309332], [1.7704619604777134, -1.610331952435375, -12.3236367804499]], "vdw gap": 2.0114587073565815, "bond length deviation": [["Ge", 0.5631032458018442], ["S", 0.5459212961190387]], "bond angle deviation": [["Ge", 22.873103860712213], ["S", 15.657173323616664]], "mass density": 2.8035084896376694, "total energy": -97.69511103, "cohesive energy": -13.470770353906254, "born effective charge tensor": 5.15419, "born effective charge q_xy": 3.4553434534500327, "born effective charge q_z": 0.27744, "dielectric constant XY": 4.407794774308123, "dielectric constant Z": 1.272319, "bader charge": [["Ge", 14.0, 1.010341], ["Ge", 14.0, 1.010341], ["S", 6.0, 1.222477], ["S", 6.0, 1.222477]], "density of states at fermi": 0.0, "vbm": 1.6967, "cbm": -2.822, "band gap": -1.1253, "vbm soc": -2.822, "cbm soc": -1.1252, "band gap soc": 1.6968, "KPath": ["0.0000 0.5000 0.0000 ! Y", "0.0000 0.0000 0.0000 ! G", "0.0000 0.0000 0.0000 ! G", "0.5000 0.5000 0.0000 ! S", "0.5000 0.5000 0.0000 ! S", "0.5000 0.0000 0.0000 ! X", "0.5000 0.0000 0.0000 ! X", "0.0000 0.5000 0.0000 ! Y"], "band locations": "/home/gtown/Documents/carbon/mpAll/monoFromMP/calcs/dir_Ge2S2-Pmn2_1-27/scf/band", "band soc location": "/home/gtown/Documents/carbon/mpAll/monoFromMP/calcs/dir_Ge2S2-Pmn2_1-27/scf_soc/band_soc", "dos location": "/home/gtown/Documents/carbon/mpAll/monoFromMP/calcs/dir_Ge2S2-Pmn2_1-27/scf/dos"}