{"formula": "Ge2S2", "spacegroup": "Pmmn (59)", "cell": {"array": [[3.8650549943767545, 0.0, 0.0], [0.0, -3.86952293661072, 0.0], [0.0, 0.0, -22.470352910811304]]}, "symbols": ["Ge", "Ge", "S", "S"], "positions": [[0.0, 0.0, -12.420969380982777], [1.9325274971883772, -1.93476146830536, -10.049383529828532], [0.0, 0.0, -10.083785597709188], [1.9325274971883772, -1.93476146830536, -12.38656731310212]], "vdw gap": 2.302781715392932, "bond length deviation": [["Ge", 0.5079924184040515], ["S", 0.16765102226695325]], "bond angle deviation": [["Ge", 21.398068536768], ["S", 0.37996913397528825]], "mass density": 2.9946160731593157, "total energy": -97.87866454, "cohesive energy": -13.516658731406253, "born effective charge tensor": 11.406009999999998, "born effective charge q_xy": 7.883842670183113, "born effective charge q_z": 0.25659, "dielectric constant XY": 9.811483063885959, "dielectric constant Z": 1.272415, "bader charge": [["Ge", 14.0, 1.052031], ["Ge", 14.0, 1.052031], ["S", 6.0, 1.218257], ["S", 6.0, 1.218257]], "density of states at fermi": 0.0, "vbm": 1.2833999999999999, "cbm": -2.1773, "band gap": -0.8939, "vbm soc": -2.1772, "cbm soc": -0.8938, "band gap soc": 1.2833999999999999, "KPath": ["-0.5000 0.0000 0.0000 ! Y", "0.0000 0.0000 0.0000 ! G", "0.0000 0.0000 0.0000 ! G", "-0.5000 -0.5000 0.0000 ! S", "-0.5000 -0.5000 0.0000 ! S", "0.0000 -0.5000 0.0000 ! X", "0.0000 -0.5000 0.0000 ! X", "-0.5000 0.0000 0.0000 ! Y"], "band locations": "/home/gtown/Documents/carbon/mpAll/monoFromMP/calcs/dir_Ge2S2-Pmmn-6/scf/band", "band soc location": "/home/gtown/Documents/carbon/mpAll/monoFromMP/calcs/dir_Ge2S2-Pmmn-6/scf_soc/band_soc", "dos location": "/home/gtown/Documents/carbon/mpAll/monoFromMP/calcs/dir_Ge2S2-Pmmn-6/scf/dos"}