{"formula": "Ge2Sb2Te5", "spacegroup": "P-3m1 (164)", "cell": {"array": [[4.235316827664519, -9e-16, 0.0], [-2.117658413832258, -3.6678919658331917, 0.0], [0.0, 0.0, -34.361436749264]]}, "symbols": ["Ge", "Ge", "Sb", "Sb", "Te", "Te", "Te", "Te", "Te"], "positions": [[0.0, 0.0, -18.91334195663891], [4.235318802453672e-08, -2.4452612861028378, -15.448094792625092], [2.117658435008831, -1.2226306430514322, -22.619191113434486], [2.117658435008831, -1.2226306430514322, -11.742245635829521], [2.117658435008831, -1.2226306430514322, -17.180718374632], [4.235318802453672e-08, -2.4452612861028378, -20.567715815141568], [0.0, 0.0, -24.315385379257197], [0.0, 0.0, -13.793720934122433], [4.235318802453672e-08, -2.4452612861028378, -10.04605137000681]], "vdw gap": 2.0514752982929174, "bond length deviation": [["Ge", 0.023264978400048476], ["Sb", 0.11273706394824615]], "bond angle deviation": [["Ge", 1.0266234344366136], ["Sb", 4.124947430428678]], "mass density": 4.049560504946416, "total energy": -244.89567603, "cohesive energy": -4.294774206666669, "born effective charge tensor": 13.344579999999999, "born effective charge q_xy": 6.55573, "born effective charge q_z": 0.23312, "dielectric constant XY": 17.616883, "dielectric constant Z": 1.944904, "bader charge": [["Ge", 14.0, 1.230301], ["Ge", 14.0, 1.234634], ["Sb", 5.0, 1.292652], ["Sb", 5.0, 1.29417], ["Te", 6.0, 1.494156], ["Te", 6.0, 1.476836], ["Te", 6.0, 1.426336], ["Te", 6.0, 1.461214], ["Te", 6.0, 1.423847]], "density of states at fermi": 0.02689, "vbm": 0.6985, "cbm": 0.6524, "band gap": 1.3509, "vbm soc": 0.6524, "cbm soc": 1.3509, "band gap soc": 0.6985, "KPath": ["0.5000 0.0000 0.0000 ! M", "0.0000 0.0000 0.0000 ! G", "0.0000 0.0000 0.0000 ! G", "0.3333 0.3333 0.0000 ! K", "0.3333 0.3333 0.0000 ! K", "0.5000 0.0000 0.0000 ! M"], "band locations": "/home/gtown/Documents/carbon/mpAll/monoFromMP/calcs/dir_Ge2Sb2Te5-P_3m1-7/scf/band", "band soc location": "/home/gtown/Documents/carbon/mpAll/monoFromMP/calcs/dir_Ge2Sb2Te5-P_3m1-7/scf_soc/band_soc", "dos location": "/home/gtown/Documents/carbon/mpAll/monoFromMP/calcs/dir_Ge2Sb2Te5-P_3m1-7/scf/dos"}