{"formula": "Ge2Se2", "spacegroup": "Pmn2_1 (31)", "cell": {"array": [[3.776153526802556, 0.0, 0.0], [0.0, -4.62667550633012, 0.0], [0.0, 0.0, -22.721739864907036]]}, "symbols": ["Ge", "Ge", "Se", "Se"], "positions": [[0.0, -0.017767370829456463, -10.057809920723484], [1.888076763401278, -2.3311051239945164, -12.66392994418355], [1.888076763401278, -2.917720779407725, -10.203640613529195], [0.0, -0.6043830262426655, -12.518099251377844]], "vdw gap": 2.3144586378486487, "bond length deviation": [["Ge", 0.4710879544764257], ["Se", 0.4710879544764259]], "bond angle deviation": [["Ge", 12.494512024290907], ["Se", 12.731895085502416]], "mass density": 3.52621170850884, "total energy": -104.81918627, "cohesive energy": -12.11302766203125, "born effective charge tensor": 5.222309999999999, "born effective charge q_xy": 3.549133884273739, "born effective charge q_z": 0.22802, "dielectric constant XY": 5.990827866414458, "dielectric constant Z": 1.28495, "bader charge": [["Ge", 14.0, 1.077507], ["Ge", 14.0, 1.077507], ["Se", 6.0, 1.306282], ["Se", 6.0, 1.306282]], "density of states at fermi": 0.0, "vbm": 1.4481000000000002, "cbm": -2.6524, "band gap": -1.2043, "vbm soc": -2.6524, "cbm soc": -1.2042, "band gap soc": 1.4482000000000002, "KPath": ["0.0000 0.5000 0.0000 ! Y", "0.0000 0.0000 0.0000 ! G", "0.0000 0.0000 0.0000 ! G", "0.5000 0.5000 0.0000 ! S", "0.5000 0.5000 0.0000 ! S", "0.5000 0.0000 0.0000 ! X", "0.5000 0.0000 0.0000 ! X", "0.0000 0.5000 0.0000 ! Y"], "band locations": "/home/gtown/Documents/carbon/mpAll/monoFromMP/calcs/dir_Ge2Se2-Pmn2_1-0/scf/band", "band soc location": "/home/gtown/Documents/carbon/mpAll/monoFromMP/calcs/dir_Ge2Se2-Pmn2_1-0/scf_soc/band_soc", "dos location": "/home/gtown/Documents/carbon/mpAll/monoFromMP/calcs/dir_Ge2Se2-Pmn2_1-0/scf/dos"}