{"formula": "Ge2Te2", "spacegroup": "Pmn2_1 (31)", "cell": {"array": [[4.18104638880645, 0.0, 0.0], [0.0, -4.422310355672472, 0.0], [0.0, 0.0, -22.837229233122592]]}, "symbols": ["Ge", "Ge", "Te", "Te"], "positions": [[0.0, 0.0805784564318358, -10.205027944871997], [2.090523194403225, -2.130576721404401, -12.632201288250595], [0.0, -3.9943305506833795, -12.888765973412514], [2.090523194403225, -1.7831753728471436, -9.948463259710081]], "vdw gap": 2.4271733433785982, "bond length deviation": [["Ge", 0.2802921907581355]], "bond angle deviation": [["Ge", 6.92001747399449]], "mass density": 4.034701794629552, "total energy": -111.59859601, "cohesive energy": -8.255048057500002, "born effective charge tensor": 6.29593, "born effective charge q_xy": 4.3569348991349415, "born effective charge q_z": 0.13602, "dielectric constant XY": 10.241449727304479, "dielectric constant Z": 1.32316, "bader charge": [["Ge", 14.0, 1.179511], ["Ge", 14.0, 1.179511], ["Te", 6.0, 1.406711], ["Te", 6.0, 6.361843]], "density of states at fermi": 0.4415, "vbm": 0.9075000000000001, "cbm": -1.5698, "band gap": -0.6623, "vbm soc": -1.5692, "cbm soc": -0.6617, "band gap soc": 0.9075, "KPath": ["0.0000 0.5000 0.0000 ! Y", "0.0000 0.0000 0.0000 ! G", "0.0000 0.0000 0.0000 ! G", "0.5000 0.5000 0.0000 ! S", "0.5000 0.5000 0.0000 ! S", "0.5000 0.0000 0.0000 ! X", "0.5000 0.0000 0.0000 ! X", "0.0000 0.5000 0.0000 ! Y"], "band locations": "/home/gtown/Documents/carbon/mpAll/monoFromMP/calcs/dir_Ge2Te2-Pmn2_1-30/scf/band", "band soc location": "/home/gtown/Documents/carbon/mpAll/monoFromMP/calcs/dir_Ge2Te2-Pmn2_1-30/scf_soc/band_soc", "dos location": "/home/gtown/Documents/carbon/mpAll/monoFromMP/calcs/dir_Ge2Te2-Pmn2_1-30/scf/dos"}