{"formula": "GeS2", "spacegroup": "P-4m2 (115)", "cell": {"array": [[3.4656574816741283, 0.0, 0.0], [0.0, -3.4656574816741283, 0.0], [0.0, 0.0, -22.809971535053347]]}, "symbols": ["Ge", "S", "S"], "positions": [[0.0, 0.0, -11.404985767526673], [0.0, -1.7328287408370642, -9.996400471260937], [1.7328287408370642, 0.0, -12.813571063792411]], "vdw gap": 1.4085852962657377, "bond length deviation": [["Ge", 0.6588210249963062], ["S", 8.107922592650824e-16]], "bond angle deviation": [["Ge", 19.706685785250023], ["S", 6.029155041345696e-14]], "mass density": 2.6941777538432543, "total energy": -70.19261459, "cohesive energy": -13.417520851875002, "born effective charge tensor": 5.000956666666666, "born effective charge q_xy": 2.37383, "born effective charge q_z": 0.25329666666666667, "dielectric constant XY": 2.346459, "dielectric constant Z": 1.244893, "bader charge": [["Ge", 14.0, 0.929994], ["S", 6.0, 6.649146], ["S", 6.0, 1.147363]], "density of states at fermi": 0.01698, "vbm": 1.502, "cbm": -3.2738, "band gap": -1.7718, "vbm soc": -3.2738, "cbm soc": -1.7718, "band gap soc": 1.502, "KPath": ["0.0000 0.5000 0.0000 ! X", "0.0000 0.0000 0.0000 ! G", "0.0000 0.0000 0.0000 ! G", "0.5000 0.5000 0.0000 ! M", "0.5000 0.5000 0.0000 ! M", "0.0000 0.5000 0.0000 ! X"], "band locations": "/home/gtown/Documents/carbon/mpAll/monoFromMP/calcs/dir_GeS2-P_4m2-8/scf/band", "band soc location": "/home/gtown/Documents/carbon/mpAll/monoFromMP/calcs/dir_GeS2-P_4m2-8/scf_soc/band_soc", "dos location": "/home/gtown/Documents/carbon/mpAll/monoFromMP/calcs/dir_GeS2-P_4m2-8/scf/dos"}