{"formula": "GeSb2Te4", "spacegroup": "P-3m1 (164)", "cell": {"array": [[4.244528061108756, 1e-16, 0.0], [-2.122264030554377, -3.6758691279960916, 0.0], [0.0, 0.0, -30.864263462327997]]}, "symbols": ["Ge", "Sb", "Sb", "Te", "Te", "Te", "Te"], "positions": [[0.0, 0.0, -15.432131731163999], [2.1222640517770053, -1.2252896970791411, -19.157604155822323], [-2.1222626394597522e-08, -2.4505794309169504, -11.70665930650567], [-2.1222626394597522e-08, -2.4505794309169504, -17.117162051332887], [0.0, 0.0, -20.854333736154345], [2.1222640517770053, -1.2252896970791411, -13.747101410995109], [0.0, 0.0, -10.009929726173656]], "vdw gap": 2.040442104489438, "bond length deviation": [["Ge", 1.5641276329748076e-08], ["Sb", 0.10873102169599926]], "bond angle deviation": [["Ge", 1.105247396425189], ["Sb", 3.9210800839814355]], "mass density": 4.11130244501929, "total energy": -189.13964465, "cohesive energy": -3.169448338571434, "born effective charge tensor": 13.203462857142856, "born effective charge q_xy": 6.2739199999999995, "born effective charge q_z": 0.6556228571428572, "dielectric constant XY": 14.919583, "dielectric constant Z": 1.758427, "bader charge": [["Ge", 14.0, 1.244042], ["Sb", 5.0, 1.316761], ["Sb", 5.0, 1.316761], ["Te", 6.0, 1.487958], ["Te", 6.0, 1.428468], ["Te", 6.0, 1.487958], ["Te", 6.0, 1.428468]], "density of states at fermi": 0.0, "vbm": 0.7446999999999999, "cbm": -0.0025, "band gap": 0.7422, "vbm soc": -0.0027, "cbm soc": 0.742, "band gap soc": 0.7447, "KPath": ["0.5000 0.0000 0.0000 ! M", "0.0000 0.0000 0.0000 ! G", "0.0000 0.0000 0.0000 ! G", "0.3333 0.3333 0.0000 ! K", "0.3333 0.3333 0.0000 ! K", "0.5000 0.0000 0.0000 ! M"], "band locations": "/home/gtown/Documents/carbon/mpAll/monoFromMP/calcs/dir_GeSb2Te4-P_3m1-28/scf/band", "band soc location": "/home/gtown/Documents/carbon/mpAll/monoFromMP/calcs/dir_GeSb2Te4-P_3m1-28/scf_soc/band_soc", "dos location": "/home/gtown/Documents/carbon/mpAll/monoFromMP/calcs/dir_GeSb2Te4-P_3m1-28/scf/dos"}