{"formula": "GeTe2", "spacegroup": "P-3m1 (164)", "cell": {"array": [[3.8285770140863717, 1e-16, 0.0], [-1.9142885070431852, -3.315644954543971, 0.0], [0.0, 0.0, -23.35769943495833]]}, "symbols": ["Ge", "Te", "Te"], "positions": [[-1.9142872616392963e-08, -2.2104299807481236, -11.678849717479165], [0.0, 0.0, -9.96944926645569], [1.9142884687573993, -1.1052150069522997, -13.388250168502642]], "vdw gap": 1.7094004510234768, "bond length deviation": [["Ge", 1.3544345772512161e-08]], "bond angle deviation": [["Ge", 3.673902254238168]], "mass density": 5.035605763613356, "total energy": -84.02052114, "cohesive energy": -6.438031646666668, "born effective charge tensor": 1.6995266666666666, "born effective charge q_xy": 0.82045, "born effective charge q_z": 0.05862666666666667, "dielectric constant XY": 18.436359, "dielectric constant Z": 1.321603, "bader charge": [["Ge", 14.0, 1.152202], ["Te", 6.0, 6.195466], ["Te", 6.0, 1.400618]], "density of states at fermi": 1.664, "vbm": 0, "cbm": 0, "band gap": 0, "vbm soc": 0, "cbm soc": 0, "band gap soc": 0, "KPath": ["0.5000 0.0000 0.0000 ! M", "0.0000 0.0000 0.0000 ! G", "0.0000 0.0000 0.0000 ! G", "0.3333 0.3333 0.0000 ! K", "0.3333 0.3333 0.0000 ! K", "0.5000 0.0000 0.0000 ! M"], "band locations": "/home/gtown/Documents/carbon/mpAll/monoFromMP/calcs/dir_GeTe2-P_3m1-24/scf/band", "band soc location": "/home/gtown/Documents/carbon/mpAll/monoFromMP/calcs/dir_GeTe2-P_3m1-24/scf_soc/band_soc", "dos location": "/home/gtown/Documents/carbon/mpAll/monoFromMP/calcs/dir_GeTe2-P_3m1-24/scf/dos"}