{"formula": "GeTe", "spacegroup": "P3m1 (156)", "cell": {"array": [[3.908686104636281, 4e-16, 0.0], [1.9543430523181395, 3.3850214620342602, 0.0], [0.0, 0.0, 21.413316954959047]]}, "symbols": ["Ge", "Te"], "positions": [[0.0, 0.0, 11.479493543828136], [3.9086861241796984, 2.256680985972905, 9.933823411130911]], "vdw gap": 1.545670132697225, "bond length deviation": [["Ge", 1.6123911235666e-08]], "bond angle deviation": [["Ge", 3.4492098223441897e-07]], "mass density": 4.894932794070732, "total energy": -55.80043254, "cohesive energy": -8.255615325, "born effective charge tensor": 4.12255, "born effective charge q_xy": 2.00525, "born effective charge q_z": 0.11205, "dielectric constant XY": 4.532835, "dielectric constant Z": 1.249732, "bader charge": [["Ge", 14.0, 13.666135], ["Te", 6.0, 6.333865]], "density of states at fermi": 0.0, "vbm": 1.7571999999999999, "cbm": -3.28, "band gap": -1.5228, "vbm soc": -3.28, "cbm soc": -1.5228, "band gap soc": 1.7571999999999999, "KPath": ["0.5000 0.0000 0.0000 ! M", "0.0000 0.0000 0.0000 ! G", "0.0000 0.0000 0.0000 ! G", "0.3333 -0.3333 0.0000 ! K", "0.3333 -0.3333 0.0000 ! K", "0.5000 0.0000 0.0000 ! M"], "band locations": "/home/gtown/Documents/carbon/mpAll/monoFromMP/calcs/dir_GeTe-P_6m2-1/scf/band", "band soc location": "/home/gtown/Documents/carbon/mpAll/monoFromMP/calcs/dir_GeTe-P_6m2-1/scf_soc/band_soc", "dos location": "/home/gtown/Documents/carbon/mpAll/monoFromMP/calcs/dir_GeTe-P_6m2-1/scf/dos"}