{"formula": "P2Sn2", "spacegroup": "P-3m1 (164)", "cell": {"array": [[3.8564817316933144, 1e-16, 0.0], [-1.9282408658466565, -3.339811148877014, 0.0], [0.0, 0.0, -25.04794954102708]]}, "symbols": ["Sn", "Sn", "P", "P"], "positions": [[0.0, 0.0, -13.808941855281002], [1.9282408851290542, -1.1132703718263077, -11.239007328957884], [3.856483465697319e-08, -2.226540743652592, -15.024139707741954], [3.856483465697319e-08, -2.226540743652592, -10.023809833285124]], "vdw gap": 2.5699345263231184, "bond length deviation": [["Sn", 0.5504877928816914], ["P", 9.663208396715979e-08]], "bond angle deviation": [["Sn", 22.912391574584767], ["P", 4.988697512319895e-06]], "mass density": 3.0703023099808284, "total energy": -76.1560266, "cohesive energy": -2.1648766039880947, "born effective charge tensor": 6.4643, "born effective charge q_xy": 3.17548, "born effective charge q_z": 0.11334, "dielectric constant XY": 6.560224, "dielectric constant Z": 1.394044, "bader charge": [["Sn", 4.0, 1.117494], ["Sn", 4.0, 1.117496], ["P", 5.0, 1.172255], ["P", 5.0, 1.172259]], "density of states at fermi": 8.354, "vbm": 0, "cbm": 0, "band gap": 0, "vbm soc": 0, "cbm soc": 0, "band gap soc": 0, "KPath": ["0.5000 0.0000 0.0000 ! M", "0.0000 0.0000 0.0000 ! G", "0.0000 0.0000 0.0000 ! G", "0.3333 0.3333 0.0000 ! K", "0.3333 0.3333 0.0000 ! K", "0.5000 0.0000 0.0000 ! M"], "band locations": "/home/gtown/Documents/carbon/mpAll/monoFromMP/calcs/dir-P2Sn2-P_3m1/scf/band", "band soc location": "/home/gtown/Documents/carbon/mpAll/monoFromMP/calcs/dir-P2Sn2-P_3m1/scf_soc/band_soc", "dos location": "/home/gtown/Documents/carbon/mpAll/monoFromMP/calcs/dir-P2Sn2-P_3m1/scf/dos"}