{"formula": "PbSb2Te4", "spacegroup": "P-3m1 (164)", "cell": {"array": [[4.346373261528541, 0.0, 0.0], [-2.1731866307642695, -3.764069658813142, 0.0], [0.0, 0.0, -31.184430065136688]]}, "symbols": ["Sb", "Te", "Te", "Sb", "Te", "Te", "Pb"], "positions": [[0.0, 0.0, -11.634164463585757], [4.3463752134277815e-08, -2.509379747448286, -13.607663470263969], [2.1731866524961236, -1.2546898737241563, -9.995465246890435], [4.3463752134277815e-08, -2.509379747448286, -19.550265579865144], [2.1731866524961236, -1.2546898737241563, -21.18896480516734], [0.0, 0.0, -17.576766614848772], [2.1731866524961236, -1.2546898737241563, -15.59221504735698]], "vdw gap": 1.9845515770930113, "bond length deviation": [["Sb", 0.10203891912063699], ["Pb", 1.559106605378504e-08]], "bond angle deviation": [["Sb", 2.6479414778693533], ["Pb", 4.623206292644921]], "mass density": 4.457924578002534, "total energy": -183.24946741, "cohesive energy": 3.731027914285712, "born effective charge tensor": 14.12292, "born effective charge q_xy": 5.874635714285715, "born effective charge q_z": 2.3736485714285713, "dielectric constant XY": 13.356727, "dielectric constant Z": 1.768319, "bader charge": [["Sb", 5.0, 1.312458], ["Te", 6.0, 1.531981], ["Te", 6.0, 6.33678], ["Sb", 5.0, 1.312051], ["Te", 6.0, 1.433199], ["Te", 6.0, 1.526025], ["Pb", 4.0, 1.411047]], "density of states at fermi": 0.0, "vbm": 0.7808999999999999, "cbm": -0.3202, "band gap": 0.4607, "vbm soc": -0.2548, "cbm soc": 0.1855, "band gap soc": 0.4403, "KPath": ["0.5000 0.0000 0.0000 ! M", "0.0000 0.0000 0.0000 ! G", "0.0000 0.0000 0.0000 ! G", "0.3333 0.3333 0.0000 ! K", "0.3333 0.3333 0.0000 ! K", "0.5000 0.0000 0.0000 ! M"], "band locations": "/home/gtown/Documents/carbon/mpAll/monoFromMP/calcs/dir-PbSb2Te4-P_3m1/scf/band", "band soc location": "/home/gtown/Documents/carbon/mpAll/monoFromMP/calcs/dir-PbSb2Te4-P_3m1/scf_soc/band_soc", "dos location": "/home/gtown/Documents/carbon/mpAll/monoFromMP/calcs/dir-PbSb2Te4-P_3m1/scf/dos"}