{"formula": "PbTe", "spacegroup": "P3m1 (156)", "cell": {"array": [[4.254941810599366, 2e-16, 0.0], [6.382412715899047, 3.684887699603607, 0.0], [0.0, 0.0, 21.660234189501924]]}, "symbols": ["Te", "Pb"], "positions": [[0.0, 0.0, 9.978309010744104], [4.254941768049928, 2.456591775169809, 11.68192517875782]], "vdw gap": 1.703616168013717, "bond length deviation": [["Pb", 3.496449403180346e-08]], "bond angle deviation": [["Pb", 6.788041955698799e-07]], "mass density": 6.2670883698605815, "total energy": -50.43813826, "cohesive energy": 15.632110079999997, "born effective charge tensor": 5.2538599999999995, "born effective charge q_xy": 2.56993, "born effective charge q_z": 0.114, "dielectric constant XY": 4.2469, "dielectric constant Z": 1.262957, "bader charge": [["Te", 6.0, 6.426544], ["Pb", 4.0, 3.573456]], "density of states at fermi": 0.0, "vbm": 1.6390000000000002, "cbm": -3.119, "band gap": -1.48, "vbm soc": -2.7786, "cbm soc": -1.648, "band gap soc": 1.1306, "KPath": ["0.5000 0.5000 0.0000 ! M", "0.0000 0.0000 0.0000 ! G", "0.0000 0.0000 0.0000 ! G", "0.3333 0.0000 0.0000 ! K", "0.3333 0.0000 0.0000 ! K", "0.5000 0.5000 0.0000 ! M"], "band locations": "/home/gtown/Documents/carbon/mpAll/monoFromMP/calcs/dir-PbTe-P_6m2/scf/band", "band soc location": "/home/gtown/Documents/carbon/mpAll/monoFromMP/calcs/dir-PbTe-P_6m2/scf_soc/band_soc", "dos location": "/home/gtown/Documents/carbon/mpAll/monoFromMP/calcs/dir-PbTe-P_6m2/scf/dos"}