{"formula": "S20Sb8", "spacegroup": "P2_1/c (14)", "cell": {"array": [[6.88008346933046, 0.0, 0.0], [0.0, 9.126659480680283, 0.0], [0.0, 0.0, 32.0808012907328]]}, "symbols": ["S", "S", "S", "S", "S", "S", "S", "S", "S", "S", "S", "S", "S", "S", "S", "S", "S", "S", "S", "S", "Sb", "Sb", "Sb", "Sb", "Sb", "Sb", "Sb", "Sb"], "positions": [[0.4823681722689307, 2.1135087472206506, 12.797062511874408], [2.93604957799551, 6.676838487560801, 19.28373877885841], [6.376091312660738, 5.226552380159548, 19.28373877885841], [3.9224099069341634, 0.6632226398194114, 12.797062511874408], [1.84963801350598, 3.038244899446002, 19.838423500011896], [1.5687797367585095, 7.601574639786152, 12.242377790720678], [5.008821471423736, 4.3018162279342675, 12.242377790720678], [5.2896797481712134, -0.2615135124058742, 19.838423500011896], [3.7422163147047476, 2.932464622695457, 19.268924981194083], [-0.32379856444026117, 7.495794363035594, 12.811876309538738], [3.1162431702249695, 4.407596504684817, 12.811876309538738], [0.30217458003952063, -0.1557332356553238, 19.268924981194083], [1.6268922755246638, 8.936292798673893, 15.744565817004677], [1.7915254747398257, 4.3729630583337435, 16.336235473728124], [5.23156720940505, 7.530427809386596, 16.336235473728124], [5.0669340101899, 2.967098069046464, 15.744565817004677], [3.6736888813240496, 5.331899445397136, 22.365244390488826], [6.62481233827085, 0.7685697050570008, 9.715556900243994], [3.184770603605623, 2.0081616819830668, 9.715556900243994], [0.23364714665881847, 6.571491422323213, 22.365244390488826], [-0.6032990051304095, 0.07596372200298826, 14.759480734345793], [4.021716755394903, 4.639293462343132, 17.321320556386997], [0.5816750207296696, 7.264097405377216, 17.321320556386997], [2.836742729534819, 2.7007676650370773, 14.759480734345793], [1.7556709323937443, 0.7899293331277443, 11.250833931009284], [1.6627468178707467, 5.353259073467883, 20.829967359723533], [5.102788552535977, 6.550131794252466, 20.829967359723533], [5.195712667058973, 1.9868020539123215, 11.250833931009284]], "vdw gap": 1.9476044248070856, "bond length deviation": [["Sb", 0.5923468758926171], ["S", 0.5018089721440341]], "bond angle deviation": [["Sb", 23.739135705115178], ["S", 14.399780392102198]], "mass density": 1.7623035779032366, "total energy": -624.11619594, "cohesive energy": -9.206604484151784, "born effective charge tensor": 4.9077528571428575, "born effective charge q_xy": 2.953828810425547, "born effective charge q_z": 0.8934028571428569, "dielectric constant XY": 6.071227105754817, "dielectric constant Z": 1.623777, "bader charge": [["S", 6.0, 6.729694], ["S", 6.0, 6.728833], ["S", 6.0, 6.729634], ["S", 6.0, 6.729165], ["S", 6.0, 6.209417], ["S", 6.0, 6.21103], ["S", 6.0, 6.210125], ["S", 6.0, 6.209219], ["S", 6.0, 6.246324], ["S", 6.0, 6.244197], ["S", 6.0, 6.244196], ["S", 6.0, 6.244955], ["S", 6.0, 6.757592], ["S", 6.0, 6.759308], ["S", 6.0, 6.757838], ["S", 6.0, 6.757962], ["S", 6.0, 6.633541], ["S", 6.0, 6.635964], ["S", 6.0, 6.634819], ["S", 6.0, 6.635441], ["Sb", 5.0, 3.839357], ["Sb", 5.0, 3.838635], ["Sb", 5.0, 3.840797], ["Sb", 5.0, 3.840665], ["Sb", 5.0, 3.582884], ["Sb", 5.0, 3.583061], ["Sb", 5.0, 3.583759], ["Sb", 5.0, 3.581586]], "density of states at fermi": 0.0, "vbm": 0, "cbm": 0, "band gap": 0, "vbm soc": 0, "cbm soc": 0, "band gap soc": 0, "KPath": ["-0.5000 0.0000 0.0000 ! Y", "0.0000 0.0000 0.0000 ! G", "0.0000 0.0000 0.0000 ! G", "-0.5000 -0.5000 0.0000 ! S", "-0.5000 -0.5000 0.0000 ! S", "0.0000 -0.5000 0.0000 ! X", "0.0000 -0.5000 0.0000 ! X", "-0.5000 0.0000 0.0000 ! Y"], "band locations": "/home/gtown/Documents/carbon/mpAll/monoFromMP/calcs/dir_S20Sb8-P2_1_c-19/scf/band", "band soc location": "/home/gtown/Documents/carbon/mpAll/monoFromMP/calcs/dir_S20Sb8-P2_1_c-19/scf_soc/band_soc", "dos location": "/home/gtown/Documents/carbon/mpAll/monoFromMP/calcs/dir_S20Sb8-P2_1_c-19/scf/dos"}