{"formula": "S2Sb2", "spacegroup": "P-1 (2)", "cell": {"array": [[3.889579768773876, 0.0195618445430007, 0.0], [0.0251181200871153, -4.8811207793211375, 0.0], [0.0, 0.0, -22.84921543252689]]}, "symbols": ["S", "S", "Sb", "Sb"], "positions": [[1.999221073232847, -1.8879907091764496, -10.039343479657877], [0.05128930605773494, -0.9368119008764588, -12.809871952869008], [0.045871623673222034, 0.03028600834029205, -10.601184537192422], [2.0046387556173597, -2.855088618393167, -12.248030895334466]], "vdw gap": 1.646846358142044, "bond length deviation": [["Sb", 0.5090255716722345], ["S", 0.4940926348221396]], "bond angle deviation": [["Sb", 20.706116392942715], ["S", 16.565513724252323]], "mass density": 3.6680376121315352, "total energy": -91.73968082, "cohesive energy": -6.0647437264062525, "born effective charge tensor": 9.823910000000001, "born effective charge q_xy": 6.9631134536929675, "born effective charge q_z": 0.13053, "dielectric constant XY": 440.52778896928, "dielectric constant Z": 1.265163, "bader charge": [["S", 6.0, 1.18197], ["S", 6.0, 1.180591], ["Sb", 5.0, 1.076183], ["Sb", 5.0, 1.070495]], "density of states at fermi": 1.344, "vbm": 0, "cbm": 0, "band gap": 0, "vbm soc": 0, "cbm soc": 0, "band gap soc": 0, "KPath": ["0.0000 -0.5000 0.0000 ! Y1", "0.0000 0.0000 0.0000 ! G", "0.0000 0.0000 0.0000 ! G", "0.5000 0.5000 0.0000 ! C", "0.5000 0.5000 0.0000 ! C", "0.4961 0.5065 0.0000 ! H", "0.4961 0.5065 0.0000 ! H", "0.5039 0.4935 0.0000 ! H1", "0.5039 0.4935 0.0000 ! H1", "0.4961 -0.4935 0.0000 ! H2", "0.4961 -0.4935 0.0000 ! H2", "0.5000 0.0000 0.0000 ! X", "0.5000 0.0000 0.0000 ! X", "0.0000 0.5000 0.0000 ! Y", "0.0000 0.5000 0.0000 ! Y", "0.0000 -0.5000 0.0000 ! Y1"], "band locations": "/home/gtown/Documents/carbon/mpAll/monoFromMP/calcs/dir_S2Sb2-P_1-33/scf/band", "band soc location": "/home/gtown/Documents/carbon/mpAll/monoFromMP/calcs/dir_S2Sb2-P_1-33/scf_soc/band_soc", "dos location": "/home/gtown/Documents/carbon/mpAll/monoFromMP/calcs/dir_S2Sb2-P_1-33/scf/dos"}