{"formula": "Sb2", "spacegroup": "P-3m1 (164)", "cell": {"array": [[4.089723574509989, 1e-16, 0.0], [2.044861787254994, 3.5418045099817506, 0.0], [0.0, 0.0, 21.464900137019256]]}, "symbols": ["Sb", "Sb"], "positions": [[0.0, 0.0, 11.545738142954642], [2.0448617668063895, 1.1806014915212426, 9.919161994064613]], "vdw gap": 1.6265761488900292, "bond length deviation": [["Sb", 0.5929946479518043]], "bond angle deviation": [["Sb", 26.2696831731489]], "mass density": 5.167446971323506, "total energy": -49.75763561, "cohesive energy": 0.8274979249999994, "born effective charge tensor": 0.0, "born effective charge q_xy": 0.0, "born effective charge q_z": 0.0, "dielectric constant XY": 6.336829, "dielectric constant Z": 1.267907, "bader charge": [["Sb", 5.0, 5.002576], ["Sb", 5.0, 4.997424]], "density of states at fermi": 0.006347, "vbm": 1.2751, "cbm": -2.6923, "band gap": -1.4172, "vbm soc": -2.6923, "cbm soc": -1.4172, "band gap soc": 1.2751, "KPath": ["0.5000 0.0000 0.0000 ! M", "0.0000 0.0000 0.0000 ! G", "0.0000 0.0000 0.0000 ! G", "0.3333 -0.3333 0.0000 ! K", "0.3333 -0.3333 0.0000 ! K", "0.5000 0.0000 0.0000 ! M"], "band locations": "/home/gtown/Documents/carbon/mpAll/monoFromMP/calcs/dir_Sb2-P6_3_mmc-18/scf/band", "band soc location": "/home/gtown/Documents/carbon/mpAll/monoFromMP/calcs/dir_Sb2-P6_3_mmc-18/scf_soc/band_soc", "dos location": "/home/gtown/Documents/carbon/mpAll/monoFromMP/calcs/dir_Sb2-P6_3_mmc-18/scf/dos"}