{"formula": "Sb2", "spacegroup": "P2_1/m (11)", "cell": {"array": [[3.167731962497704, 0.0, 0.0], [0.0, -4.150190922634652, 0.0], [0.0, 0.0, -22.083677555368617]]}, "symbols": ["Sb", "Sb"], "positions": [[-0.10485301899652415, 0.0, -10.068144111699878], [3.058359374482695, -2.075095461317326, -12.015533443668735]], "vdw gap": 1.947389331968857, "bond length deviation": [["Sb", 0.5794900542684502]], "bond angle deviation": [["Sb", 18.353619918654303]], "mass density": 4.755538264573201, "total energy": -49.64646529, "cohesive energy": 0.8830830849999991, "born effective charge tensor": 0.0, "born effective charge q_xy": 0.0, "born effective charge q_z": 0.0, "dielectric constant XY": 10.94759886143665, "dielectric constant Z": 1.276341, "bader charge": [["Sb", 5.0, 1.330897], ["Sb", 5.0, 1.357988]], "density of states at fermi": 0.8023, "vbm": 0, "cbm": 0, "band gap": 0, "vbm soc": 0, "cbm soc": 0, "band gap soc": 0, "KPath": ["0.0000 0.5000 0.0000 ! Y", "0.0000 0.0000 0.0000 ! G", "0.0000 0.0000 0.0000 ! G", "0.5000 0.5000 0.0000 ! S", "0.5000 0.5000 0.0000 ! S", "0.5000 0.0000 0.0000 ! X", "0.5000 0.0000 0.0000 ! X", "0.0000 0.5000 0.0000 ! Y"], "band locations": "/home/gtown/Documents/carbon/mpAll/monoFromMP/calcs/dir_Sb2-Pmmn-22/scf/band", "band soc location": "/home/gtown/Documents/carbon/mpAll/monoFromMP/calcs/dir_Sb2-Pmmn-22/scf_soc/band_soc", "dos location": "/home/gtown/Documents/carbon/mpAll/monoFromMP/calcs/dir_Sb2-Pmmn-22/scf/dos"}