{"formula": "Sb2Se2Te", "spacegroup": "P-3m1 (164)", "cell": {"array": [[4.101695191631345, -4e-16, 0.0], [-6.152542787447018, -3.5521722345332245, 0.0], [0.0, 0.0, -27.16439394068898]]}, "symbols": ["Sb", "Sb", "Te", "Se", "Se"], "positions": [[0.0, 0.0, -11.505690847934225], [-2.0508475958156875, -1.1840574351922335, -15.65870309275475], [-4.101695191631331, -2.3681148703844417, -13.582196816756769], [-2.0508475958156875, -1.1840574351922335, -10.007921271347918], [0.0, 0.0, -17.156472669341063]], "vdw gap": 2.076506275997982, "bond length deviation": [["Sb", 1.1304785837105138e-07], ["Se", 1.550283272921666e-08]], "bond angle deviation": [["Sb", 3.4792396954730914e-06], ["Se", 3.40509955541072e-07]], "mass density": 3.935914016139414, "total energy": -126.36823759, "cohesive energy": -4.183052271625002, "born effective charge tensor": 13.34182, "born effective charge q_xy": 6.518048, "born effective charge q_z": 0.305724, "dielectric constant XY": 11.708681, "dielectric constant Z": 1.511527, "bader charge": [["Sb", 5.0, 1.215947], ["Sb", 5.0, 1.215945], ["Te", 6.0, 1.491396], ["Se", 6.0, 1.306665], ["Se", 6.0, 1.306667]], "density of states at fermi": 0.01056, "vbm": 0.7769, "cbm": -1.6287, "band gap": -0.8518, "vbm soc": -1.596, "cbm soc": -0.9713, "band gap soc": 0.6247, "KPath": ["0.5000 -0.5000 0.0000 ! M", "0.0000 0.0000 0.0000 ! G", "0.0000 0.0000 0.0000 ! G", "0.3333 0.0000 0.0000 ! K", "0.3333 0.0000 0.0000 ! K", "0.5000 -0.5000 0.0000 ! M"], "band locations": "/home/gtown/Documents/carbon/mpAll/monoFromMP/calcs/dir-Sb2Se2Te-P_3m1/scf/band", "band soc location": "/home/gtown/Documents/carbon/mpAll/monoFromMP/calcs/dir-Sb2Se2Te-P_3m1/scf_soc/band_soc", "dos location": "/home/gtown/Documents/carbon/mpAll/monoFromMP/calcs/dir-Sb2Se2Te-P_3m1/scf/dos"}