{"formula": "Sb2SnTe4", "spacegroup": "P-3m1 (164)", "cell": {"array": [[4.327612978534139, -8e-16, 0.0], [6.49141946780121, 3.7478227771578037, 0.0], [0.0, 0.0, 31.06033661164641]]}, "symbols": ["Sn", "Sb", "Sb", "Te", "Te", "Te", "Te"], "positions": [[0.0, 0.0, 15.530168305823205], [8.655225957068264, 2.4985485680761674, 19.419196202489903], [6.491419467801224, 1.2492742840380966, 11.641139982503804], [0.0, 0.0, 21.06862896005914], [6.491419467801224, 1.2492742840380966, 17.41944969965607], [0.0, 0.0, 9.991707651587282], [8.655225957068264, 2.4985485680761674, 13.64088648533765]], "vdw gap": 1.9997465028338457, "bond length deviation": [["Sb", 0.10777908903170508], ["Sn", 1.4304303301986123e-07]], "bond angle deviation": [["Sb", 2.9322571263958532], ["Sn", 2.7333479332013626]], "mass density": 4.114296946298357, "total energy": -180.98016964, "cohesive energy": -0.45035102285714856, "born effective charge tensor": 14.18512714285714, "born effective charge q_xy": 6.643418571428571, "born effective charge q_z": 0.89829, "dielectric constant XY": 16.696083, "dielectric constant Z": 1.767145, "bader charge": [["Sn", 4.0, 3.374961], ["Sb", 5.0, 4.434907], ["Sb", 5.0, 4.434983], ["Te", 6.0, 6.334195], ["Te", 6.0, 6.543444], ["Te", 6.0, 6.334112], ["Te", 6.0, 6.543398]], "density of states at fermi": 0.001351, "vbm": 0.6195999999999999, "cbm": -0.1063, "band gap": 0.5133, "vbm soc": -0.0701, "cbm soc": 0.3409, "band gap soc": 0.411, "KPath": ["0.5000 0.5000 0.0000 ! M", "0.0000 0.0000 0.0000 ! G", "0.0000 0.0000 0.0000 ! G", "0.3333 0.0000 0.0000 ! K", "0.3333 0.0000 0.0000 ! K", "0.5000 0.5000 0.0000 ! M"], "band locations": "/home/gtown/Documents/carbon/mpAll/monoFromMP/calcs/dir-Sb2SnTe4-P_3m1/scf/band", "band soc location": "/home/gtown/Documents/carbon/mpAll/monoFromMP/calcs/dir-Sb2SnTe4-P_3m1/scf_soc/band_soc", "dos location": "/home/gtown/Documents/carbon/mpAll/monoFromMP/calcs/dir-Sb2SnTe4-P_3m1/scf/dos"}