{"formula": "Sb2SeTe2", "spacegroup": "P3m1 (156)", "cell": {"array": [[4.176041592656797, 1e-16, 0.0], [-2.088020796328398, -3.616558106501214, 0.0], [0.0, 0.0, -27.307010253842407]]}, "symbols": ["Sb", "Te", "Se", "Sb", "Te"], "positions": [[0.0, 0.0, -11.474261530915244], [2.0880208172085934, -1.2055193567785518, -13.503920968947956], [4.1760434442599025e-08, -2.411038713557078, -10.023871621082519], [4.1760434442599025e-08, -2.411038713557078, -15.528372521062446], [0.0, 0.0, -17.281705286410762]], "vdw gap": 2.029659438032711, "bond length deviation": [["Sb", 0.08440064237384544], ["Se", 3.578458903068884e-08]], "bond angle deviation": [["Sb", 5.043871625536254], ["Se", 8.06759408543486e-07]], "mass density": 4.118257792944026, "total energy": -129.90169274, "cohesive energy": -2.6686104858124993, "born effective charge tensor": 11.570468, "born effective charge q_xy": 5.685642, "born effective charge q_z": 0.19918399999999997, "dielectric constant XY": 10.818679, "dielectric constant Z": 1.537452, "bader charge": [["Sb", 5.0, 1.238496], ["Te", 6.0, 1.509045], ["Se", 6.0, 1.331163], ["Sb", 5.0, 1.315351], ["Te", 6.0, 1.442311]], "density of states at fermi": 0.008313, "vbm": 0.8189, "cbm": -1.2186, "band gap": -0.3997, "vbm soc": -1.1468, "cbm soc": -0.5888, "band gap soc": 0.558, "KPath": ["0.5000 0.0000 0.0000 ! M", "0.0000 0.0000 0.0000 ! G", "0.0000 0.0000 0.0000 ! G", "0.3333 0.3333 0.0000 ! K", "0.3333 0.3333 0.0000 ! K", "0.5000 0.0000 0.0000 ! M"], "band locations": "/home/gtown/Documents/carbon/mpAll/monoFromMP/calcs/dir-Sb2SeTe2-P3m1/scf/band", "band soc location": "/home/gtown/Documents/carbon/mpAll/monoFromMP/calcs/dir-Sb2SeTe2-P3m1/scf_soc/band_soc", "dos location": "/home/gtown/Documents/carbon/mpAll/monoFromMP/calcs/dir-Sb2SeTe2-P3m1/scf/dos"}