{"formula": "Sb2Se2Te", "spacegroup": "P3m1 (156)", "cell": {"array": [[4.101787707025706, 0.0, 0.0], [-2.0508938535128522, -3.5522523552149847, 0.0], [0.0, 0.0, -26.941769221833425]]}, "symbols": ["Sb", "Te", "Se", "Sb", "Se"], "positions": [[0.0, 0.0, -11.78015629599162], [4.101789558395115e-08, -2.368168213128297, -9.99801581803198], [2.0508938740217793, -1.1840841065641612, -13.607667924792269], [4.101789558395115e-08, -2.368168213128297, -15.450855002342461], [0.0, 0.0, -16.940980586519004]], "vdw gap": 1.8431870775501924, "bond length deviation": [["Sb", 0.6029787893337498], ["Se", 0.09915956563134634]], "bond angle deviation": [["Sb", 22.22278679937768], ["Se", 3.7792417155933817]], "mass density": 4.132343323960933, "total energy": -126.28219803, "cohesive energy": -4.165844359625001, "born effective charge tensor": 10.333459999999999, "born effective charge q_xy": 5.063053999999999, "born effective charge q_z": 0.20735200000000004, "dielectric constant XY": 9.492607, "dielectric constant Z": 1.520561, "bader charge": [["Sb", 5.0, 1.323951], ["Te", 6.0, 6.315451], ["Se", 6.0, 1.401031], ["Sb", 5.0, 1.213516], ["Se", 6.0, 1.333784]], "density of states at fermi": 0.003222, "vbm": 0.6758, "cbm": -1.3998, "band gap": -0.724, "vbm soc": -1.362, "cbm soc": -0.8515, "band gap soc": 0.5105000000000001, "KPath": ["0.5000 0.0000 0.0000 ! M", "0.0000 0.0000 0.0000 ! G", "0.0000 0.0000 0.0000 ! G", "0.3333 0.3333 0.0000 ! K", "0.3333 0.3333 0.0000 ! K", "0.5000 0.0000 0.0000 ! M"], "band locations": "/home/gtown/Documents/carbon/mpAll/monoFromMP/calcs/dir-Sb2Se2Te-P3m1/scf/band", "band soc location": "/home/gtown/Documents/carbon/mpAll/monoFromMP/calcs/dir-Sb2Se2Te-P3m1/scf_soc/band_soc", "dos location": "/home/gtown/Documents/carbon/mpAll/monoFromMP/calcs/dir-Sb2Se2Te-P3m1/scf/dos"}