{"formula": "Sb2Te3", "spacegroup": "P3m1 (156)", "cell": {"array": [[4.259909099460618, 2e-16, 0.0], [-2.129954549730308, -3.6891894979453856, 0.0], [0.0, 0.0, -27.263358438290002]]}, "symbols": ["Sb", "Te", "Sb", "Te", "Te"], "positions": [[0.0, 0.0, -11.644443572740506], [4.259911026607676e-08, -2.4594596407023164, -9.939441604769883], [4.259911026607676e-08, -2.4594596407023164, -15.618943555737445], [0.0, 0.0, -17.323904110761976], [2.1299545710298413, -1.229729820351171, -13.631663251715198]], "vdw gap": 1.9872803040222475, "bond length deviation": [["Sb", 0.088433080833654]], "bond angle deviation": [["Sb", 3.1661517060195576]], "mass density": 4.252367148798846, "total energy": -133.37139784, "cohesive energy": -1.1414186900000005, "born effective charge tensor": 11.38242, "born effective charge q_xy": 5.600516, "born effective charge q_z": 0.18138800000000002, "dielectric constant XY": 12.169396, "dielectric constant Z": 1.570499, "bader charge": [["Sb", 5.0, 1.31013], ["Te", 6.0, 6.333152], ["Sb", 5.0, 1.297082], ["Te", 6.0, 1.438744], ["Te", 6.0, 1.521148]], "density of states at fermi": 0.0, "vbm": 0.7117, "cbm": -0.8268, "band gap": -0.1151, "vbm soc": -0.7663, "cbm soc": -0.3328, "band gap soc": 0.4335, "KPath": ["0.5000 0.0000 0.0000 ! M", "0.0000 0.0000 0.0000 ! G", "0.0000 0.0000 0.0000 ! G", "0.3333 0.3333 0.0000 ! K", "0.3333 0.3333 0.0000 ! K", "0.5000 0.0000 0.0000 ! M"], "band locations": "/home/gtown/Documents/carbon/mpAll/monoFromMP/calcs/dir-Sb2Te3-P_3m1/scf/band", "band soc location": "/home/gtown/Documents/carbon/mpAll/monoFromMP/calcs/dir-Sb2Te3-P_3m1/scf_soc/band_soc", "dos location": "/home/gtown/Documents/carbon/mpAll/monoFromMP/calcs/dir-Sb2Te3-P_3m1/scf/dos"}