{"formula": "Sb2Te2", "spacegroup": "P-3m1 (164)", "cell": {"array": [[4.55163491814821, -8e-16, 0.0], [-2.2758174590741036, -3.9418314678686555, 0.0], [0.0, 0.0, -25.53061682124218]]}, "symbols": ["Sb", "Sb", "Te", "Te"], "positions": [[0.0, 0.0, -11.876202395235817], [-2.2758159450349917e-08, -2.6278876583852004, -13.654414029165261], [2.2758174818322656, -1.3139438094834557, -10.49232148312359], [2.2758174818322656, -1.3139438094834557, -15.03829533811858]], "vdw gap": 1.7782116339294447, "bond length deviation": [["Sb", 0.5961393167507756]], "bond angle deviation": [["Sb", 26.2746585678341]], "mass density": 4.395105417934702, "total energy": -105.30057608, "cohesive energy": -0.7633740000000024, "born effective charge tensor": 8.57249, "born effective charge q_xy": 4.28142, "born effective charge q_z": 0.00965, "dielectric constant XY": 15.12657, "dielectric constant Z": 1.359433, "bader charge": [["Sb", 5.0, 1.304663], ["Sb", 5.0, 1.304665], ["Te", 6.0, 1.417019], ["Te", 6.0, 1.417024]], "density of states at fermi": 2.376, "vbm": 0, "cbm": 0, "band gap": 0, "vbm soc": 0, "cbm soc": 0, "band gap soc": 0, "KPath": ["0.5000 0.0000 0.0000 ! M", "0.0000 0.0000 0.0000 ! G", "0.0000 0.0000 0.0000 ! G", "0.3333 0.3333 0.0000 ! K", "0.3333 0.3333 0.0000 ! K", "0.5000 0.0000 0.0000 ! M"], "band locations": "/home/gtown/Documents/carbon/mpAll/monoFromMP/calcs/dir_Sb2Te2-P_3m1-25/scf/band", "band soc location": "/home/gtown/Documents/carbon/mpAll/monoFromMP/calcs/dir_Sb2Te2-P_3m1-25/scf_soc/band_soc", "dos location": "/home/gtown/Documents/carbon/mpAll/monoFromMP/calcs/dir_Sb2Te2-P_3m1-25/scf/dos"}