{"formula": "Sb2Te3", "spacegroup": "P3m1 (156)", "cell": {"array": [[4.271590745009422, 4e-16, 0.0], [-6.407386117514132, -3.699306099748656, 0.0], [0.0, 0.0, -27.399231600685347]]}, "symbols": ["Sb", "Te", "Sb", "Te", "Te"], "positions": [[0.0, 0.0, -15.691788153299878], [-4.271590702293495, -2.4662040418370523, -17.392325393942166], [-4.271590702293495, -2.4662040418370523, -11.708194221195422], [0.0, 0.0, -10.007863790932578], [-2.13579535114677, -1.2331020209185395, -13.699790303092286]], "vdw gap": 1.9919978502075928, "bond length deviation": [["Sb", 0.09111852703460512]], "bond angle deviation": [["Sb", 3.1310865980508984]], "mass density": 4.227013416785919, "total energy": -133.35597833, "cohesive energy": -1.138334788000003, "born effective charge tensor": 12.897654, "born effective charge q_xy": 6.352404, "born effective charge q_z": 0.192846, "dielectric constant XY": 13.634011, "dielectric constant Z": 1.564984, "bader charge": [["Sb", 5.0, 1.282998], ["Te", 6.0, 1.435638], ["Sb", 5.0, 1.290291], ["Te", 6.0, 1.422356], ["Te", 6.0, 1.495061]], "density of states at fermi": 0.00458, "vbm": 0.6928000000000001, "cbm": -0.8847, "band gap": -0.1919, "vbm soc": -0.8237, "cbm soc": -0.4003, "band gap soc": 0.4234, "KPath": ["0.5000 -0.5000 0.0000 ! M", "0.0000 0.0000 0.0000 ! G", "0.0000 0.0000 0.0000 ! G", "0.3333 0.0000 0.0000 ! K", "0.3333 0.0000 0.0000 ! K", "0.5000 -0.5000 0.0000 ! M"], "band locations": "/home/gtown/Documents/carbon/mpAll/monoFromMP/calcs/dir-Sb2Te3-P3m1/scf/band", "band soc location": "/home/gtown/Documents/carbon/mpAll/monoFromMP/calcs/dir-Sb2Te3-P3m1/scf_soc/band_soc", "dos location": "/home/gtown/Documents/carbon/mpAll/monoFromMP/calcs/dir-Sb2Te3-P3m1/scf/dos"}