{"formula": "Sb4", "spacegroup": "P2_1/m (11)", "cell": {"array": [[4.580879334076343, 0.0, 0.0], [0.0, -4.38175931579127, 0.0], [0.0, 0.0, -23.344566701846183]]}, "symbols": ["Sb", "Sb", "Sb", "Sb"], "positions": [[-0.04423686995071381, 0.0, -12.723249110926035], [1.8005106501224029, -2.190879657895635, -13.350312378557032], [0.8230691062839879, 0.0, -9.994254323289153], [2.6678166263571055, -2.190879657895635, -10.621317590920151]], "vdw gap": 2.101931520005884, "bond length deviation": [["Sb", 0.47659518032926407]], "bond angle deviation": [["Sb", 15.211763023895124]], "mass density": 4.4452776156889495, "total energy": -98.92454584, "cohesive energy": 0.9751792700000017, "born effective charge tensor": 3.43823, "born effective charge q_xy": 2.7372768929722837, "born effective charge q_z": 0.00963, "dielectric constant XY": 55.06444827198784, "dielectric constant Z": 1.346273, "bader charge": [["Sb", 5.0, 1.349477], ["Sb", 5.0, 1.357623], ["Sb", 5.0, 4.967297], ["Sb", 5.0, 1.347396]], "density of states at fermi": 0.0, "vbm": 0, "cbm": 0, "band gap": 0, "vbm soc": 0, "cbm soc": 0, "band gap soc": 0, "KPath": ["-0.5000 0.0000 0.0000 ! Y", "0.0000 0.0000 0.0000 ! G", "0.0000 0.0000 0.0000 ! G", "-0.5000 -0.5000 0.0000 ! S", "-0.5000 -0.5000 0.0000 ! S", "0.0000 -0.5000 0.0000 ! X", "0.0000 -0.5000 0.0000 ! X", "-0.5000 0.0000 0.0000 ! Y"], "band locations": "/home/gtown/Documents/carbon/mpAll/monoFromMP/calcs/dir_Sb4-P2_1_m-17/scf/band", "band soc location": "/home/gtown/Documents/carbon/mpAll/monoFromMP/calcs/dir_Sb4-P2_1_m-17/scf_soc/band_soc", "dos location": "/home/gtown/Documents/carbon/mpAll/monoFromMP/calcs/dir_Sb4-P2_1_m-17/scf/dos"}