{"formula": "Sb4Te6", "spacegroup": "P2/m (10)", "cell": {"array": [[5.6640794519441, 0.0, 0.0], [0.0, 6.258498647621607, -1.4e-15], [0.0, 4e-15, 26.43023431966688]]}, "symbols": ["Sb", "Sb", "Sb", "Sb", "Te", "Te", "Te", "Te", "Te", "Te"], "positions": [[0.0, 0.14242198722530397, 9.95413043669099], [0.0, 4.135284838385521, 13.68400748996866], [0.0, 4.564811598637946, 16.476103882975885], [0.0, 0.5719487474777276, 12.746226829698209], [0.0, 3.0538106542112473, 9.861421686102377], [2.83203972597205, 0.2257267662343664, 11.260686239411127], [2.83203972597205, 3.203691687462934, 10.935374051970165], [0.0, 1.6534229316520455, 16.5688126335645], [2.83203972597205, 4.481506819628887, 15.169548080255737], [2.83203972597205, 1.5035418984003164, 15.494860267696712]], "vdw gap": 1.4855405902870817, "bond length deviation": [["Sb", 0.42879246639069857]], "bond angle deviation": [["Sb", 19.924278241616193]], "mass density": 4.3129416453510485, "total energy": -267.34773065, "cohesive energy": -1.201912187000005, "born effective charge tensor": 11.897, "born effective charge q_xy": 10.257891606595383, "born effective charge q_z": 0.032533999999999993, "dielectric constant XY": 27.551150957286264, "dielectric constant Z": 1.483587, "bader charge": [["Sb", 5.0, 4.748583], ["Sb", 5.0, 4.871705], ["Sb", 5.0, 4.78091], ["Sb", 5.0, 4.866193], ["Te", 6.0, 6.198242], ["Te", 6.0, 6.135967], ["Te", 6.0, 6.047964], ["Te", 6.0, 6.165992], ["Te", 6.0, 6.136788], ["Te", 6.0, 6.047656]], "density of states at fermi": 3.987, "vbm": 0, "cbm": 0, "band gap": 0, "vbm soc": 0, "cbm soc": 0, "band gap soc": 0, "KPath": ["0.0000 0.5000 0.0000 ! Y", "0.0000 0.0000 0.0000 ! G", "0.0000 0.0000 0.0000 ! G", "0.5000 0.5000 0.0000 ! S", "0.5000 0.5000 0.0000 ! S", "0.5000 0.0000 0.0000 ! X", "0.5000 0.0000 0.0000 ! X", "0.0000 0.5000 0.0000 ! Y"], "band locations": "/home/gtown/Documents/carbon/mpAll/monoFromMP/calcs/dir_Sb4Te6-P2_m-15/scf/band", "band soc location": "/home/gtown/Documents/carbon/mpAll/monoFromMP/calcs/dir_Sb4Te6-P2_m-15/scf_soc/band_soc", "dos location": "/home/gtown/Documents/carbon/mpAll/monoFromMP/calcs/dir_Sb4Te6-P2_m-15/scf/dos"}