{"formula": "Sb4Te6", "spacegroup": "P2/c (13)", "cell": {"array": [[11.002140266754537, -0.2748758248869946, 0.0], [-1.9376072258715935, -7.427106122057177, 0.0], [0.0, 0.0, -22.15125285168]]}, "symbols": ["Sb", "Sb", "Sb", "Sb", "Te", "Te", "Te", "Te", "Te", "Te"], "positions": [[-0.4553942293608594, -0.45296902720298027, -11.875307798080046], [6.673555202286976, -1.0111528904009717, -11.875307798080046], [5.704751589351179, -4.724705951429559, -10.275945053599967], [-1.4241978422966564, -4.166522088231569, -10.275945053599967], [-0.2723861041882847, -6.766222479116734, -10.490812792585753], [4.5529398512427335, -2.1250055605443934, -10.490812792585753], [3.584136238306937, -5.8385586215729814, -11.660440059094254], [0.696417508747512, -3.0526694180881453, -11.660440059094254], [7.641347006904579, -4.583051932274036, -12.324233029022983], [8.610150619840297, -0.8694988712454457, -9.827019822657016]], "vdw gap": 1.1696272665085008, "bond length deviation": [["Sb", 0.4100879628645042]], "bond angle deviation": [["Sb", 7.186851291879456]], "mass density": 4.153384097547734, "total energy": -268.29478949, "cohesive energy": -1.296618071000006, "born effective charge tensor": 4.116555999999999, "born effective charge q_xy": 2.985932966047965, "born effective charge q_z": 0.12349800000000002, "dielectric constant XY": 5.073505000125751, "dielectric constant Z": 1.228936, "bader charge": [["Sb", 5.0, 1.203488], ["Sb", 5.0, 1.209182], ["Sb", 5.0, 1.209182], ["Sb", 5.0, 1.203488], ["Te", 6.0, 1.324137], ["Te", 6.0, 1.324472], ["Te", 6.0, 1.324472], ["Te", 6.0, 1.324137], ["Te", 6.0, 1.37612], ["Te", 6.0, 6.344949]], "density of states at fermi": 0.05734, "vbm": 1.2481, "cbm": -2.9985, "band gap": -1.7504, "vbm soc": -2.9981, "cbm soc": -1.7501, "band gap soc": 1.248, "KPath": ["-0.5000 0.0000 0.0000 ! Y1", "0.0000 0.0000 0.0000 ! G", "0.0000 0.0000 0.0000 ! G", "0.5000 -0.5000 0.0000 ! C", "0.5000 -0.5000 0.0000 ! C", "0.6523 -0.4309 0.0000 ! H", "0.6523 -0.4309 0.0000 ! H", "0.3477 -0.5691 0.0000 ! H1", "0.3477 -0.5691 0.0000 ! H1", "-0.3477 -0.4309 0.0000 ! H2", "-0.3477 -0.4309 0.0000 ! H2", "0.0000 -0.5000 0.0000 ! X", "0.0000 -0.5000 0.0000 ! X", "0.5000 0.0000 0.0000 ! Y", "0.5000 0.0000 0.0000 ! Y", "-0.5000 0.0000 0.0000 ! Y1"], "band locations": "/home/gtown/Documents/carbon/mpAll/monoFromMP/calcs/dir_Sb4Te6-P2_c-31/scf/band", "band soc location": "/home/gtown/Documents/carbon/mpAll/monoFromMP/calcs/dir_Sb4Te6-P2_c-31/scf_soc/band_soc", "dos location": "/home/gtown/Documents/carbon/mpAll/monoFromMP/calcs/dir_Sb4Te6-P2_c-31/scf/dos"}