{"formula": "SbTe2", "spacegroup": "P-3m1 (164)", "cell": {"array": [[4.099085033995596, 1e-16, 0.0], [-2.0495425169977977, -3.5499117717127864, 0.0], [0.0, 0.0, -23.5584743296432]]}, "symbols": ["Sb", "Te", "Te"], "positions": [[-2.0495411975733328e-08, -2.366607859641556, -11.7792371648216], [0.0, 0.0, -9.95951173876343], [2.0495424760069296, -1.1833039475703508, -13.598962590879772]], "vdw gap": 1.819725426058172, "bond length deviation": [["Sb", 1.4532326511449093e-08]], "bond angle deviation": [["Sb", 3.4330183931378184]], "mass density": 4.7451740047978195, "total energy": -81.01086637, "cohesive energy": -1.490034006666671, "born effective charge tensor": 8.68608, "born effective charge q_xy": 4.339493333333333, "born effective charge q_z": 0.0070933333333333334, "dielectric constant XY": 13.205634, "dielectric constant Z": 1.340678, "bader charge": [["Sb", 5.0, 1.317377], ["Te", 6.0, 6.298713], ["Te", 6.0, 1.439842]], "density of states at fermi": 2.374, "vbm": 0, "cbm": 0, "band gap": 0, "vbm soc": 0, "cbm soc": 0, "band gap soc": 0, "KPath": ["0.5000 0.0000 0.0000 ! M", "0.0000 0.0000 0.0000 ! G", "0.0000 0.0000 0.0000 ! G", "0.3333 0.3333 0.0000 ! K", "0.3333 0.3333 0.0000 ! K", "0.5000 0.0000 0.0000 ! M"], "band locations": "/home/gtown/Documents/carbon/mpAll/monoFromMP/calcs/dir_SbTe2-P_3m1-16/scf/band", "band soc location": "/home/gtown/Documents/carbon/mpAll/monoFromMP/calcs/dir_SbTe2-P_3m1-16/scf_soc/band_soc", "dos location": "/home/gtown/Documents/carbon/mpAll/monoFromMP/calcs/dir_SbTe2-P_3m1-16/scf/dos"}