{"formula": "SbTe2", "spacegroup": "P3m1 (156)", "cell": {"array": [[4.099395674105897, 0.0, 0.0], [-2.049697837052948, -3.5501807939397403, 0.0], [0.0, 0.0, -23.777265704035923]]}, "symbols": ["Sb", "Te", "Te"], "positions": [[2.049697857549914, -1.1833935861459848, -11.910881519418503], [0.0, 0.0, -10.091316136574404], [-2.0496965250947963e-08, -2.3667872077937555, -13.729815168829486]], "vdw gap": 1.8195653828440985, "bond length deviation": [["Sb", 0.00021087009656400142]], "bond angle deviation": [["Sb", 3.4188581549895516]], "mass density": 4.7454213750474015, "total energy": -81.01184329, "cohesive energy": -1.4903596466666709, "born effective charge tensor": 8.704933333333333, "born effective charge q_xy": 4.3403133333333335, "born effective charge q_z": 0.024306666666666667, "dielectric constant XY": 13.05341, "dielectric constant Z": 1.336191, "bader charge": [["Sb", 5.0, 1.301926], ["Te", 6.0, 1.423576], ["Te", 6.0, 1.449064]], "density of states at fermi": 2.377, "vbm": 0, "cbm": 0, "band gap": 0, "vbm soc": 0, "cbm soc": 0, "band gap soc": 0, "KPath": ["0.5000 0.0000 0.0000 ! M", "0.0000 0.0000 0.0000 ! G", "0.0000 0.0000 0.0000 ! G", "0.3333 0.3333 0.0000 ! K", "0.3333 0.3333 0.0000 ! K", "0.5000 0.0000 0.0000 ! M"], "band locations": "/home/gtown/Documents/carbon/mpAll/monoFromMP/calcs/dir_SbTe2-P3m1-3/scf/band", "band soc location": "/home/gtown/Documents/carbon/mpAll/monoFromMP/calcs/dir_SbTe2-P3m1-3/scf_soc/band_soc", "dos location": "/home/gtown/Documents/carbon/mpAll/monoFromMP/calcs/dir_SbTe2-P3m1-3/scf/dos"}