{"formula": "Te4", "spacegroup": "Pmc2_1 (26)", "cell": {"array": [[3.029861327326717, 0.0, 0.0], [0.0, -9.466429265906001, 0.0], [0.0, 0.0, -24.313475623864]]}, "symbols": ["Te", "Te", "Te", "Te"], "positions": [[0.0, -0.005661602095871229, -10.307048225365408], [0.0, -7.109571694178492, -12.15681190289682], [0.0, -4.738876235048873, -14.006427398498586], [0.0, -2.3763570612254927, -12.156663720967181]], "vdw gap": 1.849615495601773, "bond length deviation": [], "bond angle deviation": [], "mass density": 3.2069147275908505, "total energy": -112.57095908, "cohesive energy": -2.7255154600000004, "born effective charge tensor": 7.55413, "born effective charge q_xy": 6.785747750137784, "born effective charge q_z": 0.2021, "dielectric constant XY": 30.2265470709457, "dielectric constant Z": 1.258461, "bader charge": [["Te", 6.0, 1.452799], ["Te", 6.0, 1.371278], ["Te", 6.0, 1.452799], ["Te", 6.0, 1.371278]], "density of states at fermi": 3.098, "vbm": 0, "cbm": 0, "band gap": 0, "vbm soc": 0, "cbm soc": 0, "band gap soc": 0, "KPath": ["0.0000 0.5000 0.0000 ! Y", "0.0000 0.0000 0.0000 ! G", "0.0000 0.0000 0.0000 ! G", "0.5000 0.5000 0.0000 ! S", "0.5000 0.5000 0.0000 ! S", "0.5000 0.0000 0.0000 ! X", "0.5000 0.0000 0.0000 ! X", "0.0000 0.5000 0.0000 ! Y"], "band locations": "/home/gtown/Documents/carbon/mpAll/monoFromMP/calcs/dir_Te4-Pmc2_1-14/scf/band", "band soc location": "/home/gtown/Documents/carbon/mpAll/monoFromMP/calcs/dir_Te4-Pmc2_1-14/scf_soc/band_soc", "dos location": "/home/gtown/Documents/carbon/mpAll/monoFromMP/calcs/dir_Te4-Pmc2_1-14/scf/dos"}