{"formula": "Te4", "spacegroup": "Pmma (51)", "cell": {"array": [[3.0299093835107254, 0.0, 0.0], [0.0, -9.454650916713598, 0.0], [0.0, 0.0, -24.27282168573656]]}, "symbols": ["Te", "Te", "Te", "Te"], "positions": [[0.0, 0.0, -10.280421984357636], [0.0, -2.3636627291783996, -12.13641084286828], [0.0, -7.090988187535199, -12.13641084286828], [0.0, -4.727325458356799, -13.992399701378929]], "vdw gap": 1.8559888585106492, "bond length deviation": [], "bond angle deviation": [], "mass density": 3.1999184285381452, "total energy": -112.56890429, "cohesive energy": -2.7250017625000034, "born effective charge tensor": 7.4944500000000005, "born effective charge q_xy": 6.7120180079168446, "born effective charge q_z": 0.20089, "dielectric constant XY": 29.97625030460301, "dielectric constant Z": 1.259927, "bader charge": [["Te", 6.0, 1.452752], ["Te", 6.0, 1.377461], ["Te", 6.0, 1.377461], ["Te", 6.0, 1.452752]], "density of states at fermi": 3.108, "vbm": 0, "cbm": 0, "band gap": 0, "vbm soc": 0, "cbm soc": 0, "band gap soc": 0, "KPath": ["0.0000 0.5000 0.0000 ! Y", "0.0000 0.0000 0.0000 ! G", "0.0000 0.0000 0.0000 ! G", "0.5000 0.5000 0.0000 ! S", "0.5000 0.5000 0.0000 ! S", "0.5000 0.0000 0.0000 ! X", "0.5000 0.0000 0.0000 ! X", "0.0000 0.5000 0.0000 ! Y"], "band locations": "/home/gtown/Documents/carbon/mpAll/monoFromMP/calcs/dir_Te4-Pmma-5/scf/band", "band soc location": "/home/gtown/Documents/carbon/mpAll/monoFromMP/calcs/dir_Te4-Pmma-5/scf_soc/band_soc", "dos location": "/home/gtown/Documents/carbon/mpAll/monoFromMP/calcs/dir_Te4-Pmma-5/scf/dos"}