{"formula": "PSn2", "spacegroup": "P-3m1 (164)", "cell": {"array": [[3.6481627795820546, 0.0, 0.0], [-1.8240813897910266, -3.1594016442589092, 0.0], [0.0, 0.0, -23.101709080906115]]}, "symbols": {}, "positions": [[0.0, 0.0, -9.828841826613793], [1.824081353309384, -1.0531339024823232, -13.272867254292326], [-1.82408019873884e-08, -2.1062677733706052, -11.550854540453058]], "total energy": -12.8753809, "total energy_soc": -12.94491257, "born effective charge": [], "born effective charge_soc": [], "dielectric constant": [[], [], []], "dielectric constant_soc": [[], [], []], "bader charge": [["Sn", 3.515889], ["Sn", 1.208565], ["P", 1.285395]], "vbm": 0, "cbm": 0, "band gap": 0, "vbm soc": 0, "cbm soc": 0, "band gap soc": 0, "KPath": ["0.5000 0.0000 0.0000 ! M", "0.0000 0.0000 0.0000 ! G", "0.0000 0.0000 0.0000 ! G", "0.3333 0.3333 0.0000 ! K", "0.3333 0.3333 0.0000 ! K", "0.5000 0.0000 0.0000 ! M"], "band locations": "/home/gtown/Documents/carbon/mpAll/monoFromMP/calcs/dir-PSn2-P_3m1/scf/band", "band soc location": "/home/gtown/Documents/carbon/mpAll/monoFromMP/calcs/dir-PSn2-P_3m1/scf_soc/band_soc", "dos location": "/home/gtown/Documents/carbon/mpAll/monoFromMP/calcs/dir-PSn2-P_3m1/scf/dos"}