{"formula": "GeTe", "spacegroup": "P4/mmm (123)", "cell": {"array": [[4.048032302969068, 0.0, 0.0], [0.0, -4.048032302969068, 0.0], [0.0, 0.0, -20.0]]}, "symbols": {}, "positions": [[0.0, 0.0, -10.0], [2.024016151484534, -2.024016151484534, -10.0]], "total energy": -0.18074087, "total energy_soc": -7.11941596, "born effective charge": 0.0, "dielectric constant": [[22.158667, 0.0, -0.0], [0.0, 22.158667, 0.0], [0.0, 0.0, 1.182462]], "bader charge": [["Ge", 1.240369], ["Te", 1.479671]], "vbm": 0, "cbm": 0, "band gap": 0, "vbm soc": 0, "cbm soc": 0, "band gap soc": 0, "KPath": ["0.0000 0.5000 0.0000 ! X", "0.0000 0.0000 0.0000 ! G", "0.0000 0.0000 0.0000 ! G", "0.5000 0.5000 0.0000 ! M", "0.5000 0.5000 0.0000 ! M", "0.0000 0.5000 0.0000 ! X"], "band locations": "/home/gtown/Documents/carbon/mpAll/monoFromMP/calcs/dir_GeTe-UNK-11/scf/band", "band soc location": "/home/gtown/Documents/carbon/mpAll/monoFromMP/calcs/dir_GeTe-UNK-11/scf_soc/band_soc", "dos location": "/home/gtown/Documents/carbon/mpAll/monoFromMP/calcs/dir_GeTe-UNK-11/scf/dos"}