{"MP-ID": "mp-1182952", "formula": "Ag3Bi3Te6", "spacegroup": "P-3m1 (164)", "cell": {"array": [[4.399098282130325, 5e-16, -0.0], [-2.1995491410651615, 3.809730866069345, 0.0], [2e-16, 1e-16, 20.85401073204628]]}, "symbols": ["Ag", "Ag", "Ag", "Bi", "Bi", "Bi", "Te", "Te", "Te", "Te", "Te", "Te"], "positions": [[0.0, 0.0, 0.0], [2.1995491630606403, 1.269910275990687, 6.950546903214686], [-2.1995476842110517e-08, 2.5398205900786586, 13.903463828831601], [1e-16, 5e-17, 10.42700536602314], [2.1995491630606403, 1.269910275990687, 17.378135854961926], [-2.1995476942116114e-08, 2.5398205900786586, 3.4758748770843546], [1.4870197036430745e-16, 7.435098518215372e-17, 15.505162429268479], [5.129802963569252e-17, 2.564901481784626e-17, 5.3488483027777995], [2.1995491630606403, 1.269910275990687, 1.6038932997125523], [-2.1995476790833534e-08, 2.5398205900786586, 19.250117432333727], [2.1995491630606403, 1.269910275990687, 12.300392440311807], [-2.1995476893418108e-08, 2.5398205900786586, 8.553618291734471]], "vdw gap": 1.8733870742886687, "bond length deviation": [["Bi", 0.0003601335528936881]], "bond angle deviation": [["Bi", 1.6456133097565735]], "mass density": 4.910279033165386, "total energy": -370.12337179, "total energy_soc": -374.53840694, "cohesive energy": 1.8295355616666644, "exfoliation energy": [], "born effective charge tensor": 15.193866666666668, "born effective charge q_xy": 5.970065000000001, "born effective charge q_z": 3.2537366666666663, "dielectric constant XY": 53.570823, "dielectric constant Z": 23.796302, "bader charge": [["Ag", 11.0, 10.843574], ["Ag", 11.0, 10.843763], ["Ag", 11.0, 10.843763], ["Bi", 5.0, 4.326872], ["Bi", 5.0, 4.320434], ["Bi", 5.0, 4.320434], ["Te", 6.0, 6.42295], ["Te", 6.0, 6.42295], ["Te", 6.0, 6.413264], ["Te", 6.0, 6.41325], ["Te", 6.0, 6.414354], ["Te", 6.0, 6.414391]], "density of states at fermi": 0.0, "effective mass": -0.15248203936410018, "vbm": 0, "cbm": 0, "band gap": 0, "vbm soc": 0, "cbm soc": 0, "band gap soc": 0, "layered?": false, "component layers": [], "KPath": ["0.5000 0.0000 0.0000 ! M", "0.0000 0.0000 0.0000 ! G", "0.0000 0.0000 0.0000 ! G", "0.0000 0.0000 0.5000 ! A", "0.0000 0.0000 0.5000 ! A", "0.3333 0.3333 0.5000 ! H", "0.3333 0.3333 0.5000 ! H", "0.3333 0.3333 0.0000 ! K", "0.3333 0.3333 0.0000 ! K", "0.5000 0.0000 0.5000 ! L", "0.5000 0.0000 0.5000 ! L", "0.5000 0.0000 0.0000 ! M"], "band locations": "/home/gtown/Documents/carbon/mpAll/allbulk/calcs/dir_Ag3Bi3Te6-mp-1182952/scf/band", "band soc location": "/home/gtown/Documents/carbon/mpAll/allbulk/calcs/dir_Ag3Bi3Te6-mp-1182952/scf_soc/band_soc", "dos location": "/home/gtown/Documents/carbon/mpAll/allbulk/calcs/dir_Ag3Bi3Te6-mp-1182952/scf/dos"}