{"MP-ID": "mp-27916", "formula": "Ag3Bi3Se6", "spacegroup": "R-3m (166)", "cell": {"array": [[4.159614760218917, -0.0, 0.0], [-2.0798073801094574, 3.602332052306299, 0.0], [-0.0, -0.0, 19.583062151747633]]}, "symbols": ["Ag", "Ag", "Ag", "Bi", "Bi", "Bi", "Se", "Se", "Se", "Se", "Se", "Se"], "positions": [[0.0, 0.0, 0.0], [2.0798074009075194, 1.2007773387610003, 6.527687318639045], [-2.0798060060594915e-08, 2.401554713545299, 13.055374833108589], [-2.0798060060594915e-08, 2.401554713545299, 3.263843757234772], [0.0, 0.0, 9.791531075873817], [2.0798074009075194, 1.2007773387610003, 16.319218394512863], [0.0, 0.0, 4.989811110408869], [2.0798074009075194, 1.2007773387610003, 1.5378764040606745], [2.0798074009075194, 1.2007773387610003, 11.51749842904791], [-2.0798060060594915e-08, 2.401554713545299, 8.06556372269972], [-2.0798060060594915e-08, 2.401554713545299, 18.045185747686954], [0.0, 0.0, 14.59325104133877]], "vdw gap": 1.7259673531740973, "bond length deviation": [["Bi", 2.0066938326619578e-08], ["Se", 0.053588139694725014]], "bond angle deviation": [["Bi", 0.6326961465324245], ["Se", 2.1725322126341466]], "mass density": 4.853837568599938, "total energy": -357.23442664, "total energy_soc": -359.20027262, "cohesive energy": -2.649217715364576, "exfoliation energy": [], "born effective charge tensor": 13.273140000000001, "born effective charge q_xy": 5.2060900000000006, "born effective charge q_z": 2.86096, "dielectric constant XY": 38.498866, "dielectric constant Z": 17.280888, "bader charge": [["Ag", 11.0, 10.668205], ["Ag", 11.0, 10.668433], ["Ag", 11.0, 10.668433], ["Bi", 5.0, 4.006232], ["Bi", 5.0, 4.009383], ["Bi", 5.0, 4.006232], ["Se", 6.0, 6.662474], ["Se", 6.0, 6.663353], ["Se", 6.0, 6.660699], ["Se", 6.0, 6.660683], ["Se", 6.0, 6.663399], ["Se", 6.0, 6.662474]], "density of states at fermi": 0.001731, "effective mass": -0.16933555621332266, "vbm": 0, "cbm": 0, "band gap": 0, "vbm soc": 0, "cbm soc": 0, "band gap soc": 0, "layered?": false, "component layers": [], "KPath": ["0.5000 0.0000 0.0000 ! M", "0.0000 0.0000 0.0000 ! G", "0.0000 0.0000 0.0000 ! G", "0.0000 0.0000 0.5000 ! A", "0.0000 0.0000 0.5000 ! A", "0.3333 0.3333 0.5000 ! H", "0.3333 0.3333 0.5000 ! H", "0.3333 0.3333 0.0000 ! K", "0.3333 0.3333 0.0000 ! K", "0.5000 0.0000 0.5000 ! L", "0.5000 0.0000 0.5000 ! L", "0.5000 0.0000 0.0000 ! M"], "band locations": "/home/gtown/Documents/carbon/mpAll/allbulk/calcs/dir_Ag3Bi3Se6-mp-27916/scf/band", "band soc location": "/home/gtown/Documents/carbon/mpAll/allbulk/calcs/dir_Ag3Bi3Se6-mp-27916/scf_soc/band_soc", "dos location": "/home/gtown/Documents/carbon/mpAll/allbulk/calcs/dir_Ag3Bi3Se6-mp-27916/scf/dos"}