{"MP-ID": "mp-8645", "formula": "As4GeTe7", "spacegroup": "P-3m1 (164)", "cell": {"array": [[4.067931297155651, 7e-16, 0.0], [-2.033965648577825, 3.5229318441865787, -0.0], [-1e-16, 0.0, 23.601008647236043]]}, "symbols": ["Ge", "Te", "Te", "Te", "Te", "Te", "Te", "Te", "As", "As", "As", "As"], "positions": [[-5e-17, 0.0, 11.800504323618021], [-2.803359305425593e-17, 0.0, 6.6162107208659044], [-7.196640694574405e-17, 0.0, 16.984797926370135], [2.033965668917469, 1.1743106029857613, 20.18295436390484], [-2.0339643455278463e-08, 2.348621241200818, 3.418054283331214], [-2.033964348341184e-08, 2.348621241200818, 10.057814509131907], [2.033965668917469, 1.1743106029857613, 13.54319413810415], [0.0, 0.0, 0.0], [2.033965668917469, 1.1743106029857613, 1.8246835608439504], [-2.033964353306442e-08, 2.348621241200818, 21.77632508639209], [-2.0339643506154865e-08, 2.348621241200818, 15.425398167095189], [2.033965668917469, 1.1743106029857613, 8.175610480140847]], "vdw gap": 3.1981564375347062, "bond length deviation": [["Ge", 1.4609735503577796e-08], ["As", 0.08467574736586148]], "bond angle deviation": [["Ge", 1.9521500125061297], ["As", 2.558701013312514]], "mass density": 3.7415628801131144, "total energy": -309.91217277, "total energy_soc": -310.67767136, "cohesive energy": -4.940791755833331, "exfoliation energy": 0.0477778308568998, "born effective charge tensor": 16.69756, "born effective charge q_xy": 7.348468333333333, "born effective charge q_z": 2.0006233333333334, "dielectric constant XY": 54.506577, "dielectric constant Z": 43.338032, "bader charge": [["Ge", 14.0, 13.607276], ["Te", 6.0, 6.081117], ["Te", 6.0, 6.081128], ["Te", 6.0, 6.091328], ["Te", 6.0, 6.091312], ["Te", 6.0, 6.284947], ["Te", 6.0, 6.284911], ["Te", 6.0, 6.168861], ["As", 5.0, 4.82644], ["As", 5.0, 4.826423], ["As", 5.0, 4.828121], ["As", 5.0, 4.828132]], "density of states at fermi": 0.1248, "effective mass": -0.32505135875112723, "vbm": 0.45699999999999985, "cbm": 5.8547, "band gap": 6.3117, "vbm soc": 5.8368, "cbm soc": 6.2896, "band gap soc": 0.45279999999999987, "layered?": true, "component layers": ["As2GeTe4-P_3m1", "As2Te3-P_3m1"], "KPath": ["0.5000 0.0000 0.0000 ! M", "0.0000 0.0000 0.0000 ! G", "0.0000 0.0000 0.0000 ! G", "0.0000 0.0000 0.5000 ! A", "0.0000 0.0000 0.5000 ! A", "0.3333 0.3333 0.5000 ! H", "0.3333 0.3333 0.5000 ! H", "0.3333 0.3333 0.0000 ! K", "0.3333 0.3333 0.0000 ! K", "0.5000 0.0000 0.5000 ! L", "0.5000 0.0000 0.5000 ! L", "0.5000 0.0000 0.0000 ! M"], "band locations": "/home/gtown/Documents/carbon/mpAll/allbulk/calcs/dir_As4GeTe7-mp-8645/scf/band", "band soc location": "/home/gtown/Documents/carbon/mpAll/allbulk/calcs/dir_As4GeTe7-mp-8645/scf_soc/band_soc", "dos location": "/home/gtown/Documents/carbon/mpAll/allbulk/calcs/dir_As4GeTe7-mp-8645/scf/dos"}