{"MP-ID": "mp-14790", "formula": "As6Ge3Te12", "spacegroup": "R-3m (166)", "cell": {"array": [[4.084328192922876, -4e-16, 0.0], [-2.0421640964614367, 3.5371319724642, 0.0], [-1e-16, 0.0, 40.70546310768277]]}, "symbols": ["Ge", "Ge", "Ge", "Te", "Te", "Te", "Te", "Te", "Te", "Te", "Te", "Te", "Te", "Te", "Te", "As", "As", "As", "As", "As", "As"], "positions": [[0.0, 0.0, 0.0], [2.042164116883067, 1.1790439790309672, 13.568487566876131], [-2.0421627263286308e-08, 2.3580879934332324, 27.136975540806638], [-1.2678891610046269e-17, 0.0, 5.1610015467904695], [-2.9065854615407436e-17, 0.0, 11.831390727407383], [2.042164116883067, 1.1790439790309672, 8.407486020085662], [2.042164116883067, 1.1790439790309672, 1.7370968394687465], [2.042164116883067, 1.1790439790309672, 18.729489113666602], [2.042164116883067, 1.1790439790309672, 25.399878294283226], [-2.0421627250607416e-08, 2.3580879934332324, 21.975973994016158], [-2.042162723422045e-08, 2.3580879934332324, 15.30558481339954], [-2.04216272759652e-08, 2.3580879934332324, 32.29797708759712], [-2.042162729235216e-08, 2.3580879934332324, 38.96836626821402], [-8.73211083899537e-17, 0.0, 35.54446156089229], [-7.093414538459256e-17, 0.0, 28.874072380275383], [-2.04216272210868e-08, 2.3580879934332324, 9.959470341247437], [-2.0421627205485815e-08, 2.3580879934332324, 3.609017632683064], [-5.780049190420064e-17, 0.0, 23.527957908123557], [-4.2199508095799336e-17, 0.0, 17.177505199559203], [2.042164116883067, 1.1790439790309672, 37.09644547499969], [2.042164116883067, 1.1790439790309672, 30.74599276643534]], "vdw gap": 3.2464848803495556, "bond length deviation": [["Ge", 1.1872648762649639e-07], ["As", 0.0952194056957063]], "bond angle deviation": [["Ge", 1.607125048781933], ["As", 2.7359021154281287]], "mass density": 3.7386440712777516, "total energy": -546.76176099, "total energy_soc": -547.79388702, "cohesive energy": -5.328283362142865, "exfoliation energy": 0.006836802365814704, "born effective charge tensor": 17.19714857142857, "born effective charge q_xy": 7.459097142857142, "born effective charge q_z": 2.2789542857142853, "dielectric constant XY": 50.663063, "dielectric constant Z": 36.927339, "bader charge": [["Ge", 14.0, 13.606262], ["Ge", 14.0, 13.60699], ["Ge", 14.0, 13.60699], ["Te", 6.0, 6.083865], ["Te", 6.0, 6.287857], ["Te", 6.0, 6.08309], ["Te", 6.0, 6.285173], ["Te", 6.0, 6.082728], ["Te", 6.0, 6.282327], ["Te", 6.0, 6.083215], ["Te", 6.0, 6.282327], ["Te", 6.0, 6.083134], ["Te", 6.0, 6.285173], ["Te", 6.0, 6.083851], ["Te", 6.0, 6.287857], ["As", 5.0, 4.826162], ["As", 5.0, 4.827973], ["As", 5.0, 4.830444], ["As", 5.0, 4.830476], ["As", 5.0, 4.827987], ["As", 5.0, 4.826118]], "density of states at fermi": 0.1194, "effective mass": -0.34538589149777565, "vbm": 0, "cbm": 0, "band gap": 0, "vbm soc": 0, "cbm soc": 0, "band gap soc": 0, "layered?": true, "component layers": ["As2GeTe4-P_3m1", "As2GeTe4-P_3m1", "As2GeTe4-P_3m1"], "KPath": ["0.5000 0.0000 0.0000 ! M", "0.0000 0.0000 0.0000 ! G", "0.0000 0.0000 0.0000 ! G", "0.0000 0.0000 0.5000 ! A", "0.0000 0.0000 0.5000 ! A", "0.3333 0.3333 0.5000 ! H", "0.3333 0.3333 0.5000 ! H", "0.3333 0.3333 0.0000 ! K", "0.3333 0.3333 0.0000 ! K", "0.5000 0.0000 0.5000 ! L", "0.5000 0.0000 0.5000 ! L", "0.5000 0.0000 0.0000 ! M"], "band locations": "/home/gtown/Documents/carbon/mpAll/allbulk/calcs/dir_As6Ge3Te12-mp-14790/scf/band", "band soc location": "/home/gtown/Documents/carbon/mpAll/allbulk/calcs/dir_As6Ge3Te12-mp-14790/scf_soc/band_soc", "dos location": "/home/gtown/Documents/carbon/mpAll/allbulk/calcs/dir_As6Ge3Te12-mp-14790/scf/dos"}