{"MP-ID": "mp-28229", "formula": "Bi12Te9", "spacegroup": "R-3m (166)", "cell": {"array": [[4.457253821012297, -1e-16, 0.0], [-2.2286269105061476, 3.8600950401119065, -1e-16], [1e-15, 2e-16, 42.63152972582472]]}, "symbols": ["Bi", "Bi", "Bi", "Bi", "Bi", "Bi", "Bi", "Bi", "Bi", "Bi", "Bi", "Bi", "Te", "Te", "Te", "Te", "Te", "Te", "Te", "Te", "Te"], "positions": [[2.863872299537084e-16, 5.727744599074168e-17, 12.20912570686812], [2.2286269327924035, 1.2866983338369933, 2.0013840596351113], [1.4734409511487432e-16, 2.946881902297486e-17, 6.281504170814509], [2.2286269327924035, 1.2866983338369933, 7.92900559568842], [2.228626932792404, 1.2866983338369935, 26.419635473371056], [-2.2286254181925736e-08, 2.573396706274913, 16.21189425245368], [2.228626932792404, 1.2866983338369933, 20.492013937317736], [-2.22862540428826e-08, 2.573396706274913, 22.139515788506984], [-2.2286253609151274e-08, 2.573396706274913, 40.63014566618962], [7.136127700462915e-16, 1.4272255400925829e-16, 30.422404018956595], [-2.228625374819441e-08, 2.573396706274913, 34.7025241301363], [8.526559048851259e-16, 1.7053118097702515e-16, 36.35002555501021], [0.0, 0.0, 0.0], [-2.2286254315588277e-08, 2.573396706274913, 10.513655629406381], [-2.2286254475488735e-08, 2.573396706274913, 3.696854563411873], [2.228626932792404, 1.2866983338369933, 14.21050976650323], [5.799502282680831e-16, 1.159900456536166e-16, 24.724165395909615], [4.2004977173191684e-16, 8.400995434638336e-17, 17.9073643299151], [-2.2286253895538504e-08, 2.573396706274913, 28.42101995932149], [2.2286269327924044, 1.2866983338369935, 38.934675162412844], [2.2286269327924044, 1.2866983338369935, 32.11787409641833]], "vdw gap": 2.5846500337179634, "bond length deviation": [["Bi", 0.23830646154415894]], "bond angle deviation": [["Bi", 6.240852720923021]], "mass density": 4.984583928409464, "total energy": -582.12905798, "total energy_soc": -573.12682579, "cohesive energy": 16.602535511904794, "exfoliation energy": -2.317251241437867, "born effective charge tensor": 10.920135714285715, "born effective charge q_xy": 4.383977142857144, "born effective charge q_z": 2.1521814285714282, "dielectric constant XY": 80.450415, "dielectric constant Z": 147.507392, "bader charge": [["Bi", 5.0, 4.364311], ["Bi", 5.0, 4.346916], ["Bi", 5.0, 4.929429], ["Bi", 5.0, 4.93199], ["Bi", 5.0, 4.357368], ["Bi", 5.0, 4.357361], ["Bi", 5.0, 4.9298], ["Bi", 5.0, 4.931884], ["Bi", 5.0, 4.346916], ["Bi", 5.0, 4.364311], ["Bi", 5.0, 4.93199], ["Bi", 5.0, 4.929429], ["Te", 6.0, 6.593439], ["Te", 6.0, 6.423659], ["Te", 6.0, 6.425673], ["Te", 6.0, 6.569588], ["Te", 6.0, 6.423503], ["Te", 6.0, 6.42351], ["Te", 6.0, 6.569588], ["Te", 6.0, 6.425673], ["Te", 6.0, 6.423659]], "density of states at fermi": 0.9363, "effective mass": -0.06133818082390273, "vbm": 0, "cbm": 0, "band gap": 0, "vbm soc": 0, "cbm soc": 0, "band gap soc": 0, "layered?": true, "component layers": ["Bi2Te3-P_3m1", "Bi2Te3-P_3m1", "Bi2-P6_3_mmc", "Bi2-P6_3_mmc", "Bi2Te3-P_3m1", "Bi2-P6_3_mmc"], "KPath": ["0.5000 0.0000 0.0000 ! M", "0.0000 0.0000 0.0000 ! G", "0.0000 0.0000 0.0000 ! G", "0.0000 0.0000 0.5000 ! A", "0.0000 0.0000 0.5000 ! A", "0.3333 0.3333 0.5000 ! H", "0.3333 0.3333 0.5000 ! H", "0.3333 0.3333 0.0000 ! K", "0.3333 0.3333 0.0000 ! K", "0.5000 0.0000 0.5000 ! L", "0.5000 0.0000 0.5000 ! L", "0.5000 0.0000 0.0000 ! M"], "band locations": "/home/gtown/Documents/carbon/mpAll/allbulk/calcs/dir_Bi12Te9-mp-28229/scf/band", "band soc location": "/home/gtown/Documents/carbon/mpAll/allbulk/calcs/dir_Bi12Te9-mp-28229/scf_soc/band_soc", "dos location": "/home/gtown/Documents/carbon/mpAll/allbulk/calcs/dir_Bi12Te9-mp-28229/scf/dos"}