{"MP-ID": "mp-1227434", "formula": "Bi12S9Te9", "spacegroup": "R3m (160)", "cell": {"array": [[4.1978722413285245, -4e-16, 1e-16], [-2.0989361206642623, 3.6354640028320215, -0.0], [1.2e-15, 3.9e-15, 59.5903931590973]]}, "symbols": ["Bi", "Bi", "Bi", "Bi", "Bi", "Bi", "Bi", "Bi", "Bi", "Bi", "Bi", "Bi", "Te", "Te", "Te", "Te", "Te", "Te", "Te", "Te", "Te", "S", "S", "S", "S", "S", "S", "S", "S", "S"], "positions": [[2.0989361416536103, 1.211821322159135, 8.039254816642401], [3.6888672727437263e-16, 1.1988818636417112e-15, 18.318420924543805], [2.0989361416536103, 1.2118213221591347, 1.9877178881852142], [2.325200968605662e-16, 7.556903147968403e-16, 11.546636657760441], [-2.0989347398854506e-08, 2.4236426806728883, 27.90271960027763], [2.098936141653611, 1.211821322159137, 38.18188511227503], [-2.0989347520717175e-08, 2.423642680672888, 21.85118267182002], [2.0989361416536108, 1.2118213221591365, 31.410100845491243], [9.6189028980856e-16, 3.1261434418778196e-15, 47.76618378800844], [-2.098934679185807e-08, 2.4236426806728906, 58.045349895909844], [8.400276215297892e-16, 2.730089769971815e-15, 41.71464685955127], [-2.09893469282247e-08, 2.42364268067289, 51.27356562912647], [2.0989361416536108, 1.2118213221591354, 13.36041785680737], [1.2571875398327988e-16, 4.085859504456596e-16, 6.243024981112899], [-2.0989347628288864e-08, 2.4236426806728875, 16.509316523554684], [-2.0989347291699722e-08, 2.423642680672889, 33.223882640442184], [2.0989361416536108, 1.2118213221591363, 26.10648916884414], [7.324559302203518e-16, 2.3804817732161438e-15, 36.37278071128592], [1.0690450728144372e-15, 3.474396486646921e-15, 53.08734682817343], [-2.098934703502604e-08, 2.4236426806728897, 45.96995395247938], [2.0989361416536116, 1.2118213221591383, 56.23624489901717], [4.72332859741716e-18, 1.535081794160577e-17, 0.23455417344974683], [-2.0989347763011033e-08, 2.423642680672887, 9.819194132401165], [-2.098934789374638e-08, 2.4236426806728866, 3.327051784187809], [2.0989361416536108, 1.2118213221591358, 20.098018361181], [5.977337637135751e-16, 1.942634732069119e-15, 29.682658320132425], [4.669984151976425e-16, 1.517744849392338e-15, 23.190515971919062], [-2.0989347156021465e-08, 2.4236426806728892, 39.96148314481623], [2.098936141653611, 1.2118213221591378, 49.54612250786366], [2.098936141653611, 1.2118213221591374, 43.053980159650315]], "vdw gap": 3.1488986667473142, "bond length deviation": [["Bi", 0.6202809002075144], ["S", 0.09224680408336529]], "bond angle deviation": [["Bi", 23.814304572055633], ["S", 2.900092114009688]], "mass density": 4.337651021265931, "total energy": -755.62965924, "total energy_soc": -758.74539562, "cohesive energy": 8.248632651156262, "exfoliation energy": 0.2343942589048253, "born effective charge tensor": 11.589110000000002, "born effective charge q_xy": 4.877420000000001, "born effective charge q_z": 1.8342699999999998, "dielectric constant XY": 22.082633, "dielectric constant Z": 16.299271, "bader charge": [["Bi", 5.0, 4.168246], ["Bi", 5.0, 4.162729], ["Bi", 5.0, 3.799468], ["Bi", 5.0, 4.134637], ["Bi", 5.0, 4.170611], ["Bi", 5.0, 4.171656], ["Bi", 5.0, 3.796914], ["Bi", 5.0, 4.138258], ["Bi", 5.0, 4.161344], ["Bi", 5.0, 4.163637], ["Bi", 5.0, 3.797093], ["Bi", 5.0, 4.145195], ["Te", 6.0, 6.406827], ["Te", 6.0, 6.325897], ["Te", 6.0, 6.362024], ["Te", 6.0, 6.403364], ["Te", 6.0, 6.324922], ["Te", 6.0, 6.352487], ["Te", 6.0, 6.396365], ["Te", 6.0, 6.334881], ["Te", 6.0, 6.36224], ["S", 6.0, 6.933862], ["S", 6.0, 6.928078], ["S", 6.0, 6.777729], ["S", 6.0, 6.935791], ["S", 6.0, 6.927884], ["S", 6.0, 6.777877], ["S", 6.0, 6.936259], ["S", 6.0, 6.926087], ["S", 6.0, 6.777638]], "density of states at fermi": 0.02446, "effective mass": -0.4424941287268698, "vbm": 0.3945999999999996, "cbm": 5.0564, "band gap": 5.451, "vbm soc": 5.0255, "cbm soc": 5.4314, "band gap soc": 0.4058999999999999, "layered?": true, "component layers": ["Bi2S2Te-P3m1", "Bi2STe2-P3m1", "Bi2STe2-P3m1", "Bi2S2Te-P3m1", "Bi2STe2-P3m1", "Bi2S2Te-P3m1"], "KPath": ["0.5000 0.0000 0.0000 ! M", "0.0000 0.0000 0.0000 ! G", "0.0000 0.0000 0.0000 ! G", "0.0000 0.0000 0.5000 ! A", "0.0000 0.0000 0.5000 ! A", "0.3333 0.3333 0.5000 ! H", "0.3333 0.3333 0.5000 ! H", "0.3333 0.3333 0.0000 ! K", "0.3333 0.3333 0.0000 ! K", "0.5000 0.0000 0.5000 ! L", "0.5000 0.0000 0.5000 ! L", "0.5000 0.0000 0.0000 ! M"], "band locations": "/home/gtown/Documents/carbon/mpAll/allbulk/calcs/dir_Bi12S9Te9-mp-1227434/scf/band", "band soc location": "/home/gtown/Documents/carbon/mpAll/allbulk/calcs/dir_Bi12S9Te9-mp-1227434/scf_soc/band_soc", "dos location": "/home/gtown/Documents/carbon/mpAll/allbulk/calcs/dir_Bi12S9Te9-mp-1227434/scf/dos"}