{"MP-ID": "mp-570930", "formula": "Bi2Pb2Se5", "spacegroup": "P-3m1 (164)", "cell": {"array": [[4.221989392827626, 0.0, -0.0], [-2.110994696413812, 3.6563500686971624, -0.0], [-1e-16, -2e-16, 16.880301699935053]]}, "symbols": ["Bi", "Bi", "Pb", "Pb", "Se", "Se", "Se", "Se", "Se"], "positions": [[-6.712096312198057e-17, -1.3424192624396113e-16, 11.330221078892466], [-3.287903687801942e-17, -6.575807375603884e-17, 5.550080621042585], [-2.1109933189835936e-08, 2.437566724652601, 1.8343765531538492], [2.1109947175237473, 1.2187833440445612, 15.045925146781201], [2.1109947175237473, 1.2187833440445612, 9.832205176486053], [-2.110993325742374e-08, 2.437566724652601, 13.243401941302936], [2.1109947175237473, 1.2187833440445615, 3.6368997586321177], [0.0, 0.0, 0.0], [-2.110993322072235e-08, 2.437566724652601, 7.048096523449002]], "vdw gap": 2.784108653037051, "bond length deviation": [["Bi", 0.12409688108062845], ["Pb", 0.6031524444197394], ["Se", 0.2922844352709511]], "bond angle deviation": [["Bi", 3.3796061538691524], ["Pb", 22.3108647098041], ["Se", 7.655624092237601]], "mass density": 4.709296978511247, "total energy": -217.40672297, "total energy_soc": -219.15580789, "cohesive energy": 9.302877099409724, "exfoliation energy": -0.05254926528150089, "born effective charge tensor": 12.07937888888889, "born effective charge q_xy": 4.922005555555556, "born effective charge q_z": 2.235367777777778, "dielectric constant XY": 19.619742, "dielectric constant Z": 18.961975, "bader charge": [["Bi", 5.0, 4.009319], ["Bi", 5.0, 4.009317], ["Pb", 4.0, 3.177203], ["Pb", 4.0, 3.177203], ["Se", 6.0, 6.588495], ["Se", 6.0, 6.813253], ["Se", 6.0, 6.813253], ["Se", 6.0, 6.823449], ["Se", 6.0, 6.58851]], "density of states at fermi": 0.0046, "effective mass": "UNKNOWN", "vbm": 0.37719999999999976, "cbm": 3.9732, "band gap": 4.3504, "vbm soc": 3.9171, "cbm soc": 4.3417, "band gap soc": 0.4246000000000003, "layered?": true, "component layers": ["Bi2Pb2Se5-P_3m1"], "KPath": ["0.5000 0.0000 0.0000 ! M", "0.0000 0.0000 0.0000 ! G", "0.0000 0.0000 0.0000 ! G", "0.0000 0.0000 0.5000 ! A", "0.0000 0.0000 0.5000 ! A", "0.3333 0.3333 0.5000 ! H", "0.3333 0.3333 0.5000 ! H", "0.3333 0.3333 0.0000 ! K", "0.3333 0.3333 0.0000 ! K", "0.5000 0.0000 0.5000 ! L", "0.5000 0.0000 0.5000 ! L", "0.5000 0.0000 0.0000 ! M"], "band locations": "/home/gtown/Documents/carbon/mpAll/allbulk/calcs/dir_Bi2Pb2Se5-mp-570930/scf/band", "band soc location": "/home/gtown/Documents/carbon/mpAll/allbulk/calcs/dir_Bi2Pb2Se5-mp-570930/scf_soc/band_soc", "dos location": "/home/gtown/Documents/carbon/mpAll/allbulk/calcs/dir_Bi2Pb2Se5-mp-570930/scf/dos"}