{"MP-ID": "mp-1227403", "formula": "Bi3Sb9Te18", "spacegroup": "R3m (160)", "cell": {"array": [[4.310537414083907, 6e-16, 0.0], [-2.1552687070419525, 3.733034904559945, 0.0], [6e-16, -4e-16, 62.66392336335038]]}, "symbols": ["Bi", "Bi", "Bi", "Sb", "Sb", "Sb", "Sb", "Sb", "Sb", "Sb", "Sb", "Sb", "Te", "Te", "Te", "Te", "Te", "Te", "Te", "Te", "Te", "Te", "Te", "Te", "Te", "Te", "Te", "Te", "Te", "Te"], "positions": [[1.1912842692966864e-16, -7.941895128644576e-17, 12.441757692528736], [2.1552687285946277, 1.2443449557432067, 33.32973193809926], [-2.15526723511108e-08, 2.4886899488167384, 54.21770681030861], [2.1552687285946273, 1.244344955743207, 1.9780483164069413], [1.8134189100593285e-16, -1.2089459400395524e-16, 18.93932393426802], [2.1552687285946273, 1.244344955743207, 8.403049617645332], [-2.1552672651299633e-08, 2.488689948816739, 22.866023188616744], [2.1552687285946277, 1.2443449557432067, 39.8272981798381], [-2.155267258978097e-08, 2.488689948816739, 29.29102448985513], [4.189395915779242e-16, -2.7929306105194946e-16, 43.75399743418725], [-2.1552672288897335e-08, 2.4886899488167384, 60.7152730520479], [4.804582545315658e-16, -3.203055030210438e-16, 50.1789987354252], [-2.1552672705061896e-08, 2.488689948816739, 17.25109936596329], [6.432719582079042e-17, -4.288479721386028e-17, 6.718324115155406], [2.1552687285946273, 1.244344955743207, 14.208620808037796], [-2.1552672835100165e-08, 2.488689948816739, 3.6699191647243117], [1.6635345113327998e-19, -1.1090230075552e-19, 0.01737393318840785], [-2.155267277096267e-08, 2.488689948816739, 10.368430761030945], [3.651773291345437e-16, -2.4345155275636245e-16, 38.13907361153337], [2.1552687285946277, 1.2443449557432067, 27.60629836072592], [-2.1552672534193282e-08, 2.4886899488167384, 35.096595680247596], [2.351390601692625e-16, -1.56759373446175e-16, 24.55789341029483], [2.1552687285946273, 1.2443449557432067, 20.905348178758466], [2.9927655335620506e-16, -1.9951770223747003e-16, 31.256405006601454], [2.1552687285946277, 1.2443449557432065, 59.02704785710388], [-2.1552672405912028e-08, 2.4886899488167384, 48.49427323293528], [5.360459440229763e-16, -3.5736396268198422e-16, 55.98456992581766], [2.1552687285946277, 1.2443449557432067, 45.44586765586489], [-2.155267247007287e-08, 2.4886899488167384, 41.793323050968255], [2.1552687285946277, 1.2443449557432067, 52.14437925217154]], "vdw gap": 3.0484055770703904, "bond length deviation": [["Sb", 0.08229477999823653], ["Bi", 0.0962441243181513]], "bond angle deviation": [["Sb", 2.4987146418075117], ["Bi", 4.084053308790943]], "mass density": 3.9862074865508723, "total energy": -804.47298691, "total energy_soc": -806.57060004, "cohesive energy": 1.9966904491666924, "exfoliation energy": -0.010507401399404148, "born effective charge tensor": 13.634720000000002, "born effective charge q_xy": 6.153708000000001, "born effective charge q_z": 1.327304, "dielectric constant XY": 37.476655, "dielectric constant Z": 34.10602, "bader charge": [["Bi", 5.0, 4.340592], ["Bi", 5.0, 4.336865], ["Bi", 5.0, 4.346668], ["Sb", 5.0, 4.457153], ["Sb", 5.0, 4.456968], ["Sb", 5.0, 4.44082], ["Sb", 5.0, 4.455817], ["Sb", 5.0, 4.458648], ["Sb", 5.0, 4.443811], ["Sb", 5.0, 4.455982], ["Sb", 5.0, 4.456452], ["Sb", 5.0, 4.442674], ["Te", 6.0, 6.311759], ["Te", 6.0, 6.317156], ["Te", 6.0, 6.376], ["Te", 6.0, 6.31762], ["Te", 6.0, 6.456074], ["Te", 6.0, 6.528846], ["Te", 6.0, 6.308787], ["Te", 6.0, 6.317607], ["Te", 6.0, 6.376795], ["Te", 6.0, 6.314808], ["Te", 6.0, 6.457322], ["Te", 6.0, 6.528943], ["Te", 6.0, 6.30893], ["Te", 6.0, 6.31645], ["Te", 6.0, 6.377955], ["Te", 6.0, 6.314497], ["Te", 6.0, 6.45803], ["Te", 6.0, 6.51997]], "density of states at fermi": 0.0, "effective mass": "UNKNOWN", "vbm": 0, "cbm": 0, "band gap": 0, "vbm soc": 0, "cbm soc": 0, "band gap soc": 0, "layered?": true, "component layers": ["BiSbTe3-P3m1", "BiSbTe3-P3m1", "BiSbTe3-P3m1", "Sb2Te3-P3m1", "Sb2Te3-P3m1", "Sb2Te3-P3m1"], "KPath": ["0.5000 0.0000 0.0000 ! M", "0.0000 0.0000 0.0000 ! G", "0.0000 0.0000 0.0000 ! G", "0.0000 0.0000 0.5000 ! A", "0.0000 0.0000 0.5000 ! A", "0.3333 0.3333 0.5000 ! H", "0.3333 0.3333 0.5000 ! H", "0.3333 0.3333 0.0000 ! K", "0.3333 0.3333 0.0000 ! K", "0.5000 0.0000 0.5000 ! L", "0.5000 0.0000 0.5000 ! L", "0.5000 0.0000 0.0000 ! M"], "band locations": "/home/gtown/Documents/carbon/mpAll/allbulk/calcs/dir_Bi3Sb9Te18-mp-1227403/scf/band", "band soc location": "/home/gtown/Documents/carbon/mpAll/allbulk/calcs/dir_Bi3Sb9Te18-mp-1227403/scf_soc/band_soc", "dos location": "/home/gtown/Documents/carbon/mpAll/allbulk/calcs/dir_Bi3Sb9Te18-mp-1227403/scf/dos"}