{"MP-ID": "mp-1227340", "formula": "Bi3Sb3Te9", "spacegroup": "R3m (160)", "cell": {"array": [[4.336449852671649, 2e-16, -0.0], [-2.168224926335824, 3.7554757346509344, -0.0], [-2e-16, -1e-16, 31.455151517184664]]}, "symbols": ["Bi", "Bi", "Bi", "Sb", "Sb", "Sb", "Te", "Te", "Te", "Te", "Te", "Te", "Te", "Te", "Te"], "positions": [[-2.1682235382786154e-08, 2.5036505022855344, 2.0041028371096563], [-7.940927088629096e-17, -3.970463544314548e-17, 12.489153237987216], [2.16822494801806, 1.2518252323654004, 22.974203638864985], [-2.1682235423884507e-08, 2.5036505022855344, 8.467877490124724], [-1.2050762420043087e-16, -6.025381210021543e-17, 18.95292789100251], [2.16822494801806, 1.2518252323654004, 29.437978291880068], [2.16822494801806, 1.2518252323654004, 10.42783135415391], [2.16822494801806, 1.2518252323654004, 3.7596463196150727], [-4.320857941070312e-17, -2.160428970535156e-17, 6.795662061029861], [-2.168223550301307e-08, 2.5036505022855344, 20.91288206958323], [-2.1682235460615022e-08, 2.5036505022855344, 14.244697035044394], [2.16822494801806, 1.2518252323654004, 17.28071246190742], [-1.9963618648161723e-16, -9.981809324080861e-17, 31.39793247046101], [-1.5723813902095975e-16, -7.861906951047988e-17, 24.729747435922178], [-2.168223554658546e-08, 2.5036505022855344, 27.765763177336744]], "vdw gap": 3.0360157414147886, "bond length deviation": [["Sb", 0.08686272527434563], ["Bi", 0.09530064617549738]], "bond angle deviation": [["Sb", 2.3850482016347927], ["Bi", 3.68532655770484]], "mass density": 4.178711824506261, "total energy": -406.25369705, "total energy_soc": -408.19424078, "cohesive energy": 5.008472677666661, "exfoliation energy": 0.017074015802349376, "born effective charge tensor": 13.634398000000001, "born effective charge q_xy": 6.087048, "born effective charge q_z": 1.460302, "dielectric constant XY": 36.638544, "dielectric constant Z": 31.713442, "bader charge": [["Bi", 5.0, 4.331292], ["Bi", 5.0, 4.33849], ["Bi", 5.0, 4.341348], ["Sb", 5.0, 4.439821], ["Sb", 5.0, 4.442969], ["Sb", 5.0, 4.440908], ["Te", 6.0, 6.526846], ["Te", 6.0, 6.380742], ["Te", 6.0, 6.314496], ["Te", 6.0, 6.522419], ["Te", 6.0, 6.380279], ["Te", 6.0, 6.311787], ["Te", 6.0, 6.536919], ["Te", 6.0, 6.381401], ["Te", 6.0, 6.310283]], "density of states at fermi": 0.0, "effective mass": "UNKNOWN", "vbm": 0, "cbm": 0, "band gap": 0, "vbm soc": 0, "cbm soc": 0, "band gap soc": 0, "layered?": true, "component layers": ["BiSbTe3-P3m1", "BiSbTe3-P3m1", "BiSbTe3-P3m1"], "KPath": ["0.5000 0.0000 0.0000 ! M", "0.0000 0.0000 0.0000 ! G", "0.0000 0.0000 0.0000 ! G", "0.0000 0.0000 0.5000 ! A", "0.0000 0.0000 0.5000 ! A", "0.3333 0.3333 0.5000 ! H", "0.3333 0.3333 0.5000 ! H", "0.3333 0.3333 0.0000 ! K", "0.3333 0.3333 0.0000 ! K", "0.5000 0.0000 0.5000 ! L", "0.5000 0.0000 0.5000 ! L", "0.5000 0.0000 0.0000 ! M"], "band locations": "/home/gtown/Documents/carbon/mpAll/allbulk/calcs/dir_Bi3Sb3Te9-mp-1227340/scf/band", "band soc location": "/home/gtown/Documents/carbon/mpAll/allbulk/calcs/dir_Bi3Sb3Te9-mp-1227340/scf_soc/band_soc", "dos location": "/home/gtown/Documents/carbon/mpAll/allbulk/calcs/dir_Bi3Sb3Te9-mp-1227340/scf/dos"}