{"MP-ID": "mp-27438", "formula": "Bi3Te6Tl3", "spacegroup": "R-3m (166)", "cell": {"array": [[4.528453608731867, -1e-16, 0.0], [-2.264226804365933, 3.9217558650211144, -0.0], [1e-16, -0.0, 23.545729474055467]]}, "symbols": ["Tl", "Tl", "Tl", "Bi", "Bi", "Bi", "Te", "Te", "Te", "Te", "Te", "Te"], "positions": [[-2.2642253233894453e-08, 2.6145039230865876, 3.9242883241616267], [5e-17, 0.0, 11.772864737027733], [2.264226827008188, 1.3072519419345268, 19.62144114989384], [0.0, 0.0, 0.0], [2.264226827008188, 1.3072519419345268, 7.848576412866106], [-2.2642253183894453e-08, 2.6145039230865876, 15.69715306118936], [2.264226827008188, 1.3072519419345268, 1.7690803714056789], [2.581995197116018e-17, 0.0, 6.079496041460429], [-2.2642253209714406e-08, 2.6145039230865876, 9.61765701972893], [2.264226827008188, 1.3072519419345268, 13.928072454326536], [7.418004802883981e-17, 0.0, 17.46623343259504], [-2.2642253158074503e-08, 2.6145039230865876, 21.776649102649788]], "vdw gap": 2.155207952755948, "bond length deviation": [["Bi", 6.777336347888584e-08]], "bond angle deviation": [["Bi", 1.6805807675098567]], "mass density": 4.796440000926208, "total energy": -305.8732491, "total energy_soc": -311.86762307, "cohesive energy": 15.139569311249994, "exfoliation energy": [], "born effective charge tensor": 13.430072500000001, "born effective charge q_xy": 5.2335475, "born effective charge q_z": 2.962977500000001, "dielectric constant XY": 28.199827, "dielectric constant Z": 40.917855, "bader charge": [["Tl", 3.0, 2.637068], ["Tl", 3.0, 2.637069], ["Tl", 3.0, 2.637073], ["Bi", 5.0, 4.272578], ["Bi", 5.0, 4.272578], ["Bi", 5.0, 4.272578], ["Te", 6.0, 6.545158], ["Te", 6.0, 6.545196], ["Te", 6.0, 6.545208], ["Te", 6.0, 6.545145], ["Te", 6.0, 6.545197], ["Te", 6.0, 6.545151]], "density of states at fermi": 0.005001, "effective mass": -0.1780607360226879, "vbm": 0.4027000000000003, "cbm": 4.7058, "band gap": 5.1085, "vbm soc": 4.6819, "cbm soc": 5.086, "band gap soc": 0.40410000000000057, "layered?": false, "component layers": [], "KPath": ["0.5000 0.0000 0.0000 ! M", "0.0000 0.0000 0.0000 ! G", "0.0000 0.0000 0.0000 ! G", "0.0000 0.0000 0.5000 ! A", "0.0000 0.0000 0.5000 ! A", "0.3333 0.3333 0.5000 ! H", "0.3333 0.3333 0.5000 ! H", "0.3333 0.3333 0.0000 ! K", "0.3333 0.3333 0.0000 ! K", "0.5000 0.0000 0.5000 ! L", "0.5000 0.0000 0.5000 ! L", "0.5000 0.0000 0.0000 ! M"], "band locations": "/home/gtown/Documents/carbon/mpAll/allbulk/calcs/dir_Bi3Te6Tl3-mp-27438/scf/band", "band soc location": "/home/gtown/Documents/carbon/mpAll/allbulk/calcs/dir_Bi3Te6Tl3-mp-27438/scf_soc/band_soc", "dos location": "/home/gtown/Documents/carbon/mpAll/allbulk/calcs/dir_Bi3Te6Tl3-mp-27438/scf/dos"}