{"MP-ID": "mp-27948", "formula": "Bi6Ge3Te12", "spacegroup": "R-3m (166)", "cell": {"array": [[4.335932510058018, -1e-15, 0.0], [-2.1679662550290075, 3.75502770280507, -0.0], [1e-16, -1e-16, 42.22546343966646]]}, "symbols": ["Ge", "Ge", "Ge", "Bi", "Bi", "Bi", "Bi", "Bi", "Bi", "Te", "Te", "Te", "Te", "Te", "Te", "Te", "Te", "Te", "Te", "Te", "Te"], "positions": [[0.0, 0.0, 0.0], [2.167966276708658, 1.2516758884182715, 14.075154339137365], [-2.1679648075708013e-08, 2.5033518143867974, 28.1503091005291], [-2.167964813351505e-08, 2.5033518143867974, 3.741020011523958], [-2.1679648117900977e-08, 2.5033518143867974, 10.33413474986808], [4.219296343808714e-17, -4.219296343808714e-17, 17.816174350661324], [5.780703656191287e-17, -5.780703656191287e-17, 24.409289089005146], [2.167966276708658, 1.2516758884182715, 31.89132868979838], [2.167966276708658, 1.2516758884182715, 38.48444342814251], [1.2987646024835669e-17, -1.2987646024835669e-17, 5.484093723890281], [2.167966276708658, 1.2516758884182715, 8.591060615247084], [2.943236965068729e-17, -2.943236965068729e-17, 12.42795448627845], [2.167966276708658, 1.2516758884182715, 1.6471998528589153], [2.167966276708658, 1.2516758884182715, 19.559248063027344], [-2.167964808869566e-08, 2.5033518143867974, 22.666215376639112], [2.167966276708658, 1.2516758884182715, 26.50310882541583], [-2.1679648105140383e-08, 2.5033518143867974, 15.72235461425065], [-2.1679648062720368e-08, 2.5033518143867974, 33.63440282441938], [8.701235397516431e-17, -8.701235397516431e-17, 36.74136971577617], [-2.1679648046275643e-08, 2.5033518143867974, 40.578263586807566], [7.056763034931266e-17, -7.056763034931266e-17, 29.797508953387997]], "vdw gap": 3.1069673136117686, "bond length deviation": [["Ge", 1.1462465447700576e-07], ["Bi", 0.10808267849605863]], "bond angle deviation": [["Ge", 2.719510889198312], ["Bi", 4.011767788931248]], "mass density": 4.367895427784826, "total energy": -577.75016506, "total energy_soc": -580.03601247, "cohesive energy": 5.708861993809543, "exfoliation energy": -0.009661996469696985, "born effective charge tensor": 14.98884285714286, "born effective charge q_xy": 6.204082857142858, "born effective charge q_z": 2.5806771428571436, "dielectric constant XY": 32.879595, "dielectric constant Z": 23.839947, "bader charge": [["Ge", 14.0, 13.555907], ["Ge", 14.0, 13.556725], ["Ge", 14.0, 13.556725], ["Bi", 5.0, 4.342626], ["Bi", 5.0, 4.343852], ["Bi", 5.0, 4.341878], ["Bi", 5.0, 4.341885], ["Bi", 5.0, 4.343854], ["Bi", 5.0, 4.342647], ["Te", 6.0, 6.376013], ["Te", 6.0, 6.375872], ["Te", 6.0, 6.502306], ["Te", 6.0, 6.503394], ["Te", 6.0, 6.376917], ["Te", 6.0, 6.377385], ["Te", 6.0, 6.502219], ["Te", 6.0, 6.502219], ["Te", 6.0, 6.37587], ["Te", 6.0, 6.375991], ["Te", 6.0, 6.503411], ["Te", 6.0, 6.502306]], "density of states at fermi": 0.0, "effective mass": -0.4141668904980842, "vbm": 0.6536, "cbm": 5.3985, "band gap": 6.0521, "vbm soc": 5.3729, "cbm soc": 6.0394, "band gap soc": 0.6665000000000001, "layered?": true, "component layers": ["Bi2GeTe4-P_3m1", "Bi2GeTe4-P_3m1", "Bi2GeTe4-P_3m1"], "KPath": ["0.5000 0.0000 0.0000 ! M", "0.0000 0.0000 0.0000 ! G", "0.0000 0.0000 0.0000 ! G", "0.0000 0.0000 0.5000 ! A", "0.0000 0.0000 0.5000 ! A", "0.3333 0.3333 0.5000 ! H", "0.3333 0.3333 0.5000 ! H", "0.3333 0.3333 0.0000 ! K", "0.3333 0.3333 0.0000 ! K", "0.5000 0.0000 0.5000 ! L", "0.5000 0.0000 0.5000 ! L", "0.5000 0.0000 0.0000 ! M"], "band locations": "/home/gtown/Documents/carbon/mpAll/allbulk/calcs/dir_Bi6Ge3Te12-mp-27948/scf/band", "band soc location": "/home/gtown/Documents/carbon/mpAll/allbulk/calcs/dir_Bi6Ge3Te12-mp-27948/scf_soc/band_soc", "dos location": "/home/gtown/Documents/carbon/mpAll/allbulk/calcs/dir_Bi6Ge3Te12-mp-27948/scf/dos"}