{"MP-ID": "mp-1077840", "formula": "Bi6Mn3Te12", "spacegroup": "R-3m (166)", "cell": {"array": [[4.1789634359178836, -2e-16, 1e-16], [-2.089481717958941, 3.61908849699119, 1e-16], [3e-16, 1.2e-15, 41.320353482641956]]}, "symbols": ["Mn", "Mn", "Mn", "Bi", "Bi", "Bi", "Bi", "Bi", "Bi", "Te", "Te", "Te", "Te", "Te", "Te", "Te", "Te", "Te", "Te", "Te", "Te"], "positions": [[0.0, 0.0, 0.0], [2.0894817388537463, 1.2063628202667762, 13.773451023146228], [-2.0894803227231887e-08, 2.4127256767244147, 27.54690245949573], [-2.08948033523081e-08, 2.4127256767244143, 10.3195910539415], [-2.0894803402155672e-08, 2.412725676724414, 3.4538603824083], [1.7492378486458404e-16, 6.996951394583362e-16, 24.093042077087425], [1.250762151354159e-16, 5.003048605416636e-16, 17.227311405554524], [2.0894817388537468, 1.2063628202667769, 37.86649310023365], [2.0894817388537468, 1.2063628202667767, 31.000762428700465], [2.0894817388537463, 1.206362820266776, 8.521399208633179], [3.813170535958281e-17, 1.5252682143833124e-16, 5.252051814513049], [2.0894817388537463, 1.2063628202667758, 1.2210288051219615], [9.113490926424927e-17, 3.645396370569971e-16, 12.55242221802427], [-2.0894803265363593e-08, 2.4127256767244143, 22.294850644982972], [2.0894817388537463, 1.2063628202667762, 19.025502837658976], [-2.0894803318366796e-08, 2.4127256767244143, 14.994480241471459], [2.0894817388537463, 1.2063628202667764, 26.325873241170502], [2.618682946404172e-16, 1.0474731785616688e-15, 36.06830166812891], [-2.089480318910018e-08, 2.4127256767244147, 32.79895427400878], [2.088650907357507e-16, 8.354603629430028e-16, 28.76793126461768], [-2.0894803136096975e-08, 2.412725676724415, 40.09932467752]], "vdw gap": 3.269347807323996, "bond length deviation": [["Bi", 0.14110238848146286], ["Mn", 0.7100520225236956]], "bond angle deviation": [["Bi", 7.2769814585869685], ["Mn", 25.15019339752274]], "mass density": 4.720354420391538, "total energy": -573.36914233, "total energy_soc": -577.72816162, "cohesive energy": 6.033390280312005, "exfoliation energy": -0.015467591983606957, "born effective charge tensor": 11.003257142857137, "born effective charge q_xy": 4.872428571428569, "born effective charge q_z": 1.2584, "dielectric constant XY": 124.147783, "dielectric constant Z": 32.916456, "bader charge": [["Mn", 7.0, 6.636495], ["Mn", 7.0, 6.63554], ["Mn", 7.0, 6.63554], ["Bi", 5.0, 4.34744], ["Bi", 5.0, 4.349236], ["Bi", 5.0, 4.349269], ["Bi", 5.0, 4.349127], ["Bi", 5.0, 4.349272], ["Bi", 5.0, 4.347432], ["Te", 6.0, 6.355367], ["Te", 6.0, 6.355017], ["Te", 6.0, 6.477409], ["Te", 6.0, 6.479385], ["Te", 6.0, 6.354484], ["Te", 6.0, 6.354228], ["Te", 6.0, 6.478785], ["Te", 6.0, 6.478785], ["Te", 6.0, 6.354981], ["Te", 6.0, 6.355375], ["Te", 6.0, 6.479385], ["Te", 6.0, 6.477448]], "density of states at fermi": 20.04, "effective mass": -0.40677687349128455, "vbm": 0, "cbm": 0, "band gap": 0, "vbm soc": 0, "cbm soc": 0, "band gap soc": 0, "layered?": true, "component layers": ["Bi2MnTe4-P_3m1", "Bi2MnTe4-P_3m1", "Bi2MnTe4-P_3m1"], "KPath": ["0.5000 0.0000 0.0000 ! M", "0.0000 0.0000 0.0000 ! G", "0.0000 0.0000 0.0000 ! G", "0.0000 0.0000 0.5000 ! A", "0.0000 0.0000 0.5000 ! A", "0.3333 0.3333 0.5000 ! H", "0.3333 0.3333 0.5000 ! H", "0.3333 0.3333 0.0000 ! K", "0.3333 0.3333 0.0000 ! K", "0.5000 0.0000 0.5000 ! L", "0.5000 0.0000 0.5000 ! L", "0.5000 0.0000 0.0000 ! M"], "band locations": "/home/gtown/Documents/carbon/mpAll/allbulk/calcs/dir_Bi6Mn3Te12-mp-1077840/scf/band", "band soc location": "/home/gtown/Documents/carbon/mpAll/allbulk/calcs/dir_Bi6Mn3Te12-mp-1077840/scf_soc/band_soc", "dos location": "/home/gtown/Documents/carbon/mpAll/allbulk/calcs/dir_Bi6Mn3Te12-mp-1077840/scf/dos"}