{"MP-ID": "mp-675543", "formula": "Bi6Pb3Se12", "spacegroup": "R-3m (166)", "cell": {"array": [[4.193054283864149, 3e-16, 0.0], [-2.0965271419320737, 3.63129152927352, -0.0], [5e-16, -4e-16, 40.077720882352615]]}, "symbols": ["Bi", "Bi", "Bi", "Bi", "Bi", "Bi", "Pb", "Pb", "Pb", "Se", "Se", "Se", "Se", "Se", "Se", "Se", "Se", "Se", "Se", "Se", "Se"], "positions": [[-2.096525757860233e-08, 2.4208610316199777, 9.605178240648678], [-2.0965257651599443e-08, 2.4208610316199777, 3.754062320653498], [2.864985569986066e-16, -2.2919884559888527e-16, 22.964418401173894], [2.1350144300139341e-16, -1.7080115440111472e-16, 17.11330248117872], [2.0965271628973334, 1.2104304976535423, 36.32365856169911], [2.0965271628973334, 1.2104304976535425, 30.472542641703942], [0.0, 0.0, 0.0], [2.096527162897333, 1.2104304976535425, 13.35924016052522], [-2.0965257365100885e-08, 2.4208610316199772, 26.718480721827397], [2.096527162897333, 1.2104304976535427, 8.085102231810357], [2.096527162897333, 1.2104304976535427, 1.8327836328738318], [1.438012975025087e-16, -1.1504103800200695e-16, 11.526456527651387], [6.579887544250575e-17, -5.2639100354004597e-17, 5.274137928714863], [-2.096525743089976e-08, 2.4208610316199777, 21.44434279311254], [-2.0965257508902184e-08, 2.4208610316199777, 15.192024194176009], [2.0965271628973334, 1.2104304976535425, 24.88569668817662], [2.0965271628973334, 1.2104304976535425, 18.633378089240086], [4.3420112455749437e-16, -3.4736089964599544e-16, 34.80358295363776], [3.5619870249749116e-16, -2.849589619979929e-16, 28.551264354701214], [-2.096525722129959e-08, 2.4208610316199772, 38.244937249478795], [-2.096525729930201e-08, 2.4208610316199772, 31.99261865054225]], "vdw gap": 2.810964703872454, "bond length deviation": [["Bi", 0.11768634536900882], ["Pb", 0.586535829588981], ["Se", 0.3233516151976065]], "bond angle deviation": [["Bi", 3.175525836381363], ["Pb", 22.98045223143977], ["Se", 8.880587732500535]], "mass density": 4.626113250029594, "total energy": -516.26786671, "total energy_soc": -518.06858612, "cohesive energy": 8.34951908863096, "exfoliation energy": -0.00291411116189681, "born effective charge tensor": 12.141767142857145, "born effective charge q_xy": 4.973807142857144, "born effective charge q_z": 2.1941528571428566, "dielectric constant XY": 18.830171, "dielectric constant Z": 15.935581, "bader charge": [["Bi", 5.0, 4.008539], ["Bi", 5.0, 4.008929], ["Bi", 5.0, 4.016539], ["Bi", 5.0, 4.016518], ["Bi", 5.0, 4.00893], ["Bi", 5.0, 4.008541], ["Pb", 4.0, 3.17756], ["Pb", 4.0, 3.183087], ["Pb", 4.0, 3.183087], ["Se", 6.0, 6.585792], ["Se", 6.0, 6.816792], ["Se", 6.0, 6.815302], ["Se", 6.0, 6.585294], ["Se", 6.0, 6.585795], ["Se", 6.0, 6.805791], ["Se", 6.0, 6.805791], ["Se", 6.0, 6.584488], ["Se", 6.0, 6.585293], ["Se", 6.0, 6.815302], ["Se", 6.0, 6.81684], ["Se", 6.0, 6.58579]], "density of states at fermi": 0.0, "effective mass": "UNKNOWN", "vbm": 0, "cbm": 0, "band gap": 0, "vbm soc": 3.9557, "cbm soc": 4.3622, "band gap soc": 0.4064999999999994, "layered?": true, "component layers": ["Bi2PbSe4-P_3m1", "Bi2PbSe4-P_3m1", "Bi2PbSe4-P_3m1"], "KPath": ["0.5000 0.0000 0.0000 ! M", "0.0000 0.0000 0.0000 ! G", "0.0000 0.0000 0.0000 ! G", "0.0000 0.0000 0.5000 ! A", "0.0000 0.0000 0.5000 ! A", "0.3333 0.3333 0.5000 ! H", "0.3333 0.3333 0.5000 ! H", "0.3333 0.3333 0.0000 ! K", "0.3333 0.3333 0.0000 ! K", "0.5000 0.0000 0.5000 ! L", "0.5000 0.0000 0.5000 ! L", "0.5000 0.0000 0.0000 ! M"], "band locations": "/home/gtown/Documents/carbon/mpAll/allbulk/calcs/dir_Bi6Pb3Se12-mp-675543/scf/band", "band soc location": "/home/gtown/Documents/carbon/mpAll/allbulk/calcs/dir_Bi6Pb3Se12-mp-675543/scf_soc/band_soc", "dos location": "/home/gtown/Documents/carbon/mpAll/allbulk/calcs/dir_Bi6Pb3Se12-mp-675543/scf/dos"}