{"MP-ID": "mp-1227398", "formula": "Bi6Pb3Te12", "spacegroup": "R3m (160)", "cell": {"array": [[4.446465585126446, 5e-16, 1e-16], [-2.223232792563223, 3.850752153772742, 0.0], [2e-16, 5e-16, 42.85159062051019]]}, "symbols": ["Bi", "Bi", "Bi", "Bi", "Bi", "Bi", "Te", "Te", "Te", "Te", "Te", "Te", "Te", "Te", "Te", "Te", "Te", "Te", "Pb", "Pb", "Pb"], "positions": [[-2.2232314037679524e-08, 2.567168115350994, 4.050137849245287], [2.2232328147955367, 1.2835840384217487, 14.301484519356006], [8.556975823343906e-17, 2.1392439558359768e-16, 18.334001246576808], [-2.223231392316704e-08, 2.5671681153509947, 28.58534834520316], [2.2232328147955367, 1.283584038421749, 32.61786464390831], [8.224255748424e-20, 2.0560639371060003e-19, 0.017621122024492144], [2.2232328147955367, 1.2835840384217485, 8.457511783498797], [2.670127062828526e-17, 6.675317657071316e-17, 5.720959590053664], [2.2232328147955367, 1.2835840384217485, 1.9514728418383638], [5.865621279311344e-17, 1.466405319827836e-16, 12.567560089800148], [-2.2232313950442446e-08, 2.5671681153509947, 22.741375609345955], [2.2232328147955367, 1.2835840384217487, 20.00482298738518], [-2.2232313980807895e-08, 2.567168115350994, 16.235336667685516], [2.2232328147955367, 1.2835840384217487, 26.85142348713135], [1.72806836201576e-16, 4.3201709050394e-16, 37.025239006677474], [-2.2232313896548012e-08, 2.5671681153509947, 34.28868681323264], [1.4244138723013722e-16, 3.5610346807534305e-16, 30.51920006501704], [-2.223231386459307e-08, 2.5671681153509947, 41.13528731297881], [-2.2232314009507188e-08, 2.567168115350994, 10.086284492458626], [1.1374209235596398e-16, 2.8435523088990996e-16, 24.370147889790147], [2.2232328147955367, 1.283584038421749, 38.65401128712166]], "vdw gap": 2.736552621960776, "bond length deviation": [["Bi", 0.10120074999995372], ["Pb", 0.2727001689448599]], "bond angle deviation": [["Bi", 2.642644552848865], ["Pb", 7.434469040905891]], "mass density": 4.643055674652552, "total energy": -561.78863505, "total energy_soc": -568.84126766, "cohesive energy": 12.527957212857148, "exfoliation energy": -0.0020696895591250718, "born effective charge tensor": 12.459485714285712, "born effective charge q_xy": 4.828527142857142, "born effective charge q_z": 2.8024314285714285, "dielectric constant XY": 33.107066, "dielectric constant Z": 38.028286, "bader charge": [["Bi", 5.0, 4.373272], ["Bi", 5.0, 4.305025], ["Bi", 5.0, 4.378342], ["Bi", 5.0, 4.325327], ["Bi", 5.0, 4.38212], ["Bi", 5.0, 4.315339], ["Te", 6.0, 6.46031], ["Te", 6.0, 6.300493], ["Te", 6.0, 6.585853], ["Te", 6.0, 6.500352], ["Te", 6.0, 6.464304], ["Te", 6.0, 6.299725], ["Te", 6.0, 6.592074], ["Te", 6.0, 6.500465], ["Te", 6.0, 6.462322], ["Te", 6.0, 6.302001], ["Te", 6.0, 6.56554], ["Te", 6.0, 6.50232], ["Pb", 4.0, 3.46341], ["Pb", 4.0, 3.460725], ["Pb", 4.0, 3.460682]], "density of states at fermi": 0.01779, "effective mass": -0.08607335426321926, "vbm": 0, "cbm": 0, "band gap": 0, "vbm soc": 0, "cbm soc": 0, "band gap soc": 0, "layered?": true, "component layers": ["Bi2Te3-P3m1", "Bi2Te3-P3m1", "Bi2Te3-P3m1", "PbTe-P_6m2", "PbTe-P_6m2", "PbTe-P_6m2"], "KPath": ["0.5000 0.0000 0.0000 ! M", "0.0000 0.0000 0.0000 ! G", "0.0000 0.0000 0.0000 ! G", "0.0000 0.0000 0.5000 ! A", "0.0000 0.0000 0.5000 ! A", "0.3333 0.3333 0.5000 ! H", "0.3333 0.3333 0.5000 ! H", "0.3333 0.3333 0.0000 ! K", "0.3333 0.3333 0.0000 ! K", "0.5000 0.0000 0.5000 ! L", "0.5000 0.0000 0.5000 ! L", "0.5000 0.0000 0.0000 ! M"], "band locations": "/home/gtown/Documents/carbon/mpAll/allbulk/calcs/dir_Bi6Pb3Te12-mp-1227398/scf/band", "band soc location": "/home/gtown/Documents/carbon/mpAll/allbulk/calcs/dir_Bi6Pb3Te12-mp-1227398/scf_soc/band_soc", "dos location": "/home/gtown/Documents/carbon/mpAll/allbulk/calcs/dir_Bi6Pb3Te12-mp-1227398/scf/dos"}