{"MP-ID": "mp-1227356", "formula": "Bi6Se6Te3", "spacegroup": "R3m (160)", "cell": {"array": [[4.225363185140757, 1e-16, 0.0], [-2.1126815925703775, 3.6592718585474255, 0.0], [-2e-16, 3e-16, 29.994089729670485]]}, "symbols": ["Bi", "Bi", "Bi", "Bi", "Bi", "Bi", "Te", "Te", "Te", "Se", "Se", "Se", "Se", "Se", "Se"], "positions": [[-2.1126802184158066e-08, 2.4395145845625157, 8.159916449765165], [-2.1126802142653525e-08, 2.4395145845625157, 1.9354621383007067], [-1.2107682829069524e-16, 1.8161524243604288e-16, 18.157946259675096], [-7.957228944611636e-17, 1.1935843416917455e-16, 11.93349194821063], [2.1126816136971813, 1.2197572739849103, 28.15597606958481], [2.1126816136971813, 1.2197572739849103, 21.931521758120343], [-4.245264148892694e-17, 6.367896223339041e-17, 6.366641690402033], [2.1126816136971813, 1.2197572739849103, 16.364671500311957], [-2.1126802305533877e-08, 2.439514584562516, 26.362701610162805], [-4.9603938546108e-19, 7.4405907819162e-19, 0.0743912491848512], [2.1126816136971813, 1.21975727398491, 3.4596486920487175], [2.1126816136971813, 1.21975727398491, 10.07242105909478], [-2.112680221948344e-08, 2.4395145845625157, 13.457678801899565], [-2.1126802263577275e-08, 2.4395145845625157, 20.070451168945414], [-1.564022033888005e-16, 2.3460330508320077e-16, 23.45570861180928]], "vdw gap": 2.9069929983535268, "bond length deviation": [["Bi", 0.08686161231180285], ["Se", 0.3417489889929058]], "bond angle deviation": [["Bi", 2.8726580039373637], ["Se", 9.588669623624124]], "mass density": 4.550704164104867, "total energy": -388.25361887, "total energy_soc": -389.93440403, "cohesive energy": 8.32540386104167, "exfoliation energy": -0.018246372239516608, "born effective charge tensor": 11.87411, "born effective charge q_xy": 5.086434, "born effective charge q_z": 1.7012420000000001, "dielectric constant XY": 23.457517, "dielectric constant Z": 20.785668, "bader charge": [["Bi", 5.0, 4.240833], ["Bi", 5.0, 4.008639], ["Bi", 5.0, 4.230197], ["Bi", 5.0, 4.00821], ["Bi", 5.0, 4.239188], ["Bi", 5.0, 4.011752], ["Te", 6.0, 6.323225], ["Te", 6.0, 6.330717], ["Te", 6.0, 6.326673], ["Se", 6.0, 6.801018], ["Se", 6.0, 6.624602], ["Se", 6.0, 6.803691], ["Se", 6.0, 6.624427], ["Se", 6.0, 6.802885], ["Se", 6.0, 6.623941]], "density of states at fermi": 0.0, "effective mass": "UNKNOWN", "vbm": 0.3653000000000004, "cbm": 4.5706, "band gap": 4.9359, "vbm soc": 0, "cbm soc": 0, "band gap soc": 0, "layered?": true, "component layers": ["Bi2Se2Te-P3m1", "Bi2Se2Te-P3m1", "Bi2Se2Te-P3m1"], "KPath": ["0.5000 0.0000 0.0000 ! M", "0.0000 0.0000 0.0000 ! G", "0.0000 0.0000 0.0000 ! G", "0.0000 0.0000 0.5000 ! A", "0.0000 0.0000 0.5000 ! A", "0.3333 0.3333 0.5000 ! H", "0.3333 0.3333 0.5000 ! H", "0.3333 0.3333 0.0000 ! K", "0.3333 0.3333 0.0000 ! K", "0.5000 0.0000 0.5000 ! L", "0.5000 0.0000 0.5000 ! L", "0.5000 0.0000 0.0000 ! M"], "band locations": "/home/gtown/Documents/carbon/mpAll/allbulk/calcs/dir_Bi6Se6Te3-mp-1227356/scf/band", "band soc location": "/home/gtown/Documents/carbon/mpAll/allbulk/calcs/dir_Bi6Se6Te3-mp-1227356/scf_soc/band_soc", "dos location": "/home/gtown/Documents/carbon/mpAll/allbulk/calcs/dir_Bi6Se6Te3-mp-1227356/scf/dos"}