{"MP-ID": "mp-34202", "formula": "Bi6Te9", "spacegroup": "R-3m (166)", "cell": {"array": [[4.39284693718858, -2e-16, 0.0], [-2.1964234685942885, 3.804317042541975, 1e-16], [-1e-16, -5e-16, 31.583042446255945]]}, "symbols": ["Bi", "Bi", "Bi", "Bi", "Bi", "Bi", "Te", "Te", "Te", "Te", "Te", "Te", "Te", "Te", "Te"], "positions": [[-2.1964219954610103e-08, 2.5362113743756987, 8.48871197826146], [-2.1964219934188562e-08, 2.5362113743756987, 2.0389690477108973], [-6.021076886675205e-17, -3.010538443337603e-16, 19.01639268840336], [-3.978923113324793e-17, -1.9894615566623969e-16, 12.566649757852579], [2.1964234905585114, 1.2681056681662757, 29.54407339854504], [2.1964234905585114, 1.2681056681662757, 23.094330467994492], [2.1964234905585114, 1.2681056681662761, 3.760877618816135], [0.0, 0.0, 0.0], [-2.142543139357352e-17, -1.0712715696786761e-16, 6.766803091325772], [-2.19642199729739e-08, 2.536211374375698, 14.288558644788267], [2.1964234905585114, 1.268105668166276, 10.527680710141906], [2.1964234905585114, 1.268105668166276, 17.29448380146768], [-7.857456860642647e-17, -3.928728430321324e-16, 24.81623935493017], [-2.1964219994399333e-08, 2.536211374375698, 21.05536173611404], [-2.1964220015824764e-08, 2.536211374375698, 27.822164827439813]], "vdw gap": 3.005925472509645, "bond length deviation": [["Bi", 0.09568011922711488]], "bond angle deviation": [["Bi", 2.939059381940538]], "mass density": 4.551419728730857, "total energy": -410.79445732, "total energy_soc": -414.48145739, "cohesive energy": 11.264946929333345, "exfoliation energy": 0.002434656710629664, "born effective charge tensor": 13.674003999999998, "born effective charge q_xy": 5.876879999999999, "born effective charge q_z": 1.9202440000000005, "dielectric constant XY": 32.158927, "dielectric constant Z": 23.404349, "bader charge": [["Bi", 5.0, 4.325194], ["Bi", 5.0, 4.325192], ["Bi", 5.0, 4.325179], ["Bi", 5.0, 4.325192], ["Bi", 5.0, 4.325179], ["Bi", 5.0, 4.325207], ["Te", 6.0, 6.379395], ["Te", 6.0, 6.589422], ["Te", 6.0, 6.380812], ["Te", 6.0, 6.380332], ["Te", 6.0, 6.589407], ["Te", 6.0, 6.379875], ["Te", 6.0, 6.3808], ["Te", 6.0, 6.589407], ["Te", 6.0, 6.379406]], "density of states at fermi": 0.0, "effective mass": -0.25171642127042976, "vbm": 0.4502000000000006, "cbm": 5.2292, "band gap": 5.6794, "vbm soc": 5.2048, "cbm soc": 5.6629, "band gap soc": 0.45809999999999995, "layered?": true, "component layers": ["Bi2Te3-P_3m1", "Bi2Te3-P_3m1", "Bi2Te3-P_3m1"], "KPath": ["0.5000 0.0000 0.0000 ! M", "0.0000 0.0000 0.0000 ! G", "0.0000 0.0000 0.0000 ! G", "0.0000 0.0000 0.5000 ! A", "0.0000 0.0000 0.5000 ! A", "0.3333 0.3333 0.5000 ! H", "0.3333 0.3333 0.5000 ! H", "0.3333 0.3333 0.0000 ! K", "0.3333 0.3333 0.0000 ! K", "0.5000 0.0000 0.5000 ! L", "0.5000 0.0000 0.5000 ! L", "0.5000 0.0000 0.0000 ! M"], "band locations": "/home/gtown/Documents/carbon/mpAll/allbulk/calcs/dir_Bi6Te9-mp-34202/scf/band", "band soc location": "/home/gtown/Documents/carbon/mpAll/allbulk/calcs/dir_Bi6Te9-mp-34202/scf_soc/band_soc", "dos location": "/home/gtown/Documents/carbon/mpAll/allbulk/calcs/dir_Bi6Te9-mp-34202/scf/dos"}