{"MP-ID": "mp-1223998", "formula": "Bi9In3Se18", "spacegroup": "R3m (160)", "cell": {"array": [[4.101006779128236, 1e-16, 0.0], [-2.0505033895641174, 3.55157605181725, -0.0], [0.0, -1e-16, 57.891850036116836]]}, "symbols": ["In", "In", "In", "Bi", "Bi", "Bi", "Bi", "Bi", "Bi", "Bi", "Bi", "Bi", "Se", "Se", "Se", "Se", "Se", "Se", "Se", "Se", "Se", "Se", "Se", "Se", "Se", "Se", "Se", "Se", "Se", "Se"], "positions": [[0.0, -2.001650075019966e-17, 11.587922596783788], [2.050503410069139, 1.183858672100504, 30.885205749183367], [-2.0505020795114152e-08, 2.367717379716746, 50.18248948050148], [2.050503410069139, 1.183858672100504, 1.9038598564608367], [0.0, -2.989347929789664e-17, 17.305888205715956], [2.050503410069139, 1.183858672100504, 7.857791755280553], [-2.0505020795114152e-08, 2.367717379716746, 21.201143587778958], [2.050503410069139, 1.183858672100504, 36.603171358115496], [-2.0505020795114152e-08, 2.367717379716746, 27.155075486598253], [0.0, -6.995531618857035e-17, 40.498426740178516], [-2.0505020795114152e-08, 2.367717379716746, 55.9004550894332], [0.0, -8.02398931974323e-17, 46.45235863899782], [-2.0505020795114152e-08, 2.367717379716746, 15.732560116463505], [0.0, -1.085911258539522e-17, 6.28654117319009], [2.050503410069139, 1.183858672100504, 12.871884941980293], [-2.0505020795114152e-08, 2.367717379716746, 3.4903188854303777], [2.050503410069139, 1.183858672100504, 19.268473871516637], [-2.0505020795114152e-08, 2.367717379716746, 9.829758911902502], [0.0, -6.05091100854595e-17, 35.02984326886306], [2.050503410069139, 1.183858672100504, 25.58382432558965], [-2.0505020795114152e-08, 2.367717379716746, 32.169168673298415], [0.0, -3.9362366246049316e-17, 22.787602037829945], [-2.0505020795114152e-08, 2.367717379716746, 38.565757602834324], [0.0, -5.0312854134270444e-17, 29.127042064302056], [2.050503410069139, 1.183858672100504, 54.32712642126222], [-2.0505020795114152e-08, 2.367717379716746, 44.88110805690736], [0.0, -8.890103148126952e-17, 51.46645182569757], [2.050503410069139, 1.183858672100504, 42.08488519022908], [0.0, -9.995023603345726e-17, 57.86304075523389], [2.050503410069139, 1.183858672100504, 48.42432521670121]], "vdw gap": 2.8606751744832124, "bond length deviation": [["Bi", 0.11443953804349946], ["Se", 0.37821478333966496]], "bond angle deviation": [["Bi", 3.5744907487110926], ["Se", 10.976032121302607]], "mass density": 4.3246834994234495, "total energy": -723.1304451, "total energy_soc": -725.19247677, "cohesive energy": 4.291129130062514, "exfoliation energy": -0.006143755909620155, "born effective charge tensor": 11.271913999999999, "born effective charge q_xy": 4.7337679999999995, "born effective charge q_z": 1.804378, "dielectric constant XY": 18.315301, "dielectric constant Z": 14.077422, "bader charge": [["In", 3.0, 2.036595], ["In", 3.0, 2.029877], ["In", 3.0, 2.039714], ["Bi", 5.0, 4.022575], ["Bi", 5.0, 4.006051], ["Bi", 5.0, 4.020047], ["Bi", 5.0, 4.014171], ["Bi", 5.0, 4.025965], ["Bi", 5.0, 4.031163], ["Bi", 5.0, 4.021365], ["Bi", 5.0, 4.036021], ["Bi", 5.0, 4.027914], ["Se", 6.0, 6.566285], ["Se", 6.0, 6.566681], ["Se", 6.0, 6.581785], ["Se", 6.0, 6.58609], ["Se", 6.0, 6.82723], ["Se", 6.0, 6.797996], ["Se", 6.0, 6.565717], ["Se", 6.0, 6.566655], ["Se", 6.0, 6.582672], ["Se", 6.0, 6.582251], ["Se", 6.0, 6.800494], ["Se", 6.0, 6.794604], ["Se", 6.0, 6.566367], ["Se", 6.0, 6.566046], ["Se", 6.0, 6.583089], ["Se", 6.0, 6.581462], ["Se", 6.0, 6.785382], ["Se", 6.0, 6.787735]], "density of states at fermi": 0.01782, "effective mass": -0.3100655469439121, "vbm": 0.4176000000000002, "cbm": 4.0561, "band gap": 4.4737, "vbm soc": 0, "cbm soc": 0, "band gap soc": 0, "layered?": true, "component layers": ["BiInSe3-P3m1", "BiInSe3-P3m1", "BiInSe3-P3m1", "Bi2Se3-P3m1", "Bi2Se3-P3m1", "Bi2Se3-P3m1"], "KPath": ["0.5000 0.0000 0.0000 ! M", "0.0000 0.0000 0.0000 ! G", "0.0000 0.0000 0.0000 ! G", "0.0000 0.0000 0.5000 ! A", "0.0000 0.0000 0.5000 ! A", "0.3333 0.3333 0.5000 ! H", "0.3333 0.3333 0.5000 ! H", "0.3333 0.3333 0.0000 ! K", "0.3333 0.3333 0.0000 ! K", "0.5000 0.0000 0.5000 ! L", "0.5000 0.0000 0.5000 ! L", "0.5000 0.0000 0.0000 ! M"], "band locations": "/home/gtown/Documents/carbon/mpAll/allbulk/calcs/dir_Bi9In3Se18-mp-1223998/scf/band", "band soc location": "/home/gtown/Documents/carbon/mpAll/allbulk/calcs/dir_Bi9In3Se18-mp-1223998/scf_soc/band_soc", "dos location": "/home/gtown/Documents/carbon/mpAll/allbulk/calcs/dir_Bi9In3Se18-mp-1223998/scf/dos"}