{"MP-ID": "mp-1226877", "formula": "Cd3Pb9Se12", "spacegroup": "R-3m (166)", "cell": {"array": [[4.257233834151566, 1e-16, -0.0], [-2.128616917075782, 3.6868726502258835, -0.0], [-0.0, 0.0, 41.63318987719733]]}, "symbols": ["Cd", "Cd", "Cd", "Pb", "Pb", "Pb", "Pb", "Pb", "Pb", "Pb", "Pb", "Pb", "Se", "Se", "Se", "Se", "Se", "Se", "Se", "Se", "Se", "Se", "Se", "Se"], "positions": [[0.0, 0.0, 0.0], [2.128616938361939, 1.2289575377857267, 13.877729820288565], [-2.1286155235606475e-08, 2.457915112440157, 27.755460056908767], [2.128616938361939, 1.2289575377857267, 3.3306606915694386], [-2.1286155235606475e-08, 2.457915112440157, 6.938865118310101], [0.0, 0.0, 10.547069128719123], [-2.1286155235606475e-08, 2.457915112440157, 17.208390928189644], [0.0, 0.0, 20.816594938598666], [2.128616938361939, 1.2289575377857267, 24.42479894900769], [0.0, 0.0, 31.086120748478205], [2.128616938361939, 1.2289575377857267, 34.694324758887234], [-2.1286155235606475e-08, 2.457915112440157, 38.30252918562789], [2.128616938361939, 1.2289575377857267, 8.737727995634598], [-2.1286155235606475e-08, 2.457915112440157, 12.3713582896151], [-2.1286155235606475e-08, 2.457915112440157, 1.5063719470050996], [0.0, 0.0, 5.140001824653966], [-2.1286155235606475e-08, 2.457915112440157, 22.61545823225509], [0.0, 0.0, 26.24908810990367], [0.0, 0.0, 15.384101767293666], [2.128616938361939, 1.2289575377857267, 19.01773164494223], [0.0, 0.0, 36.49318805254336], [2.128616938361939, 1.2289575377857267, 40.12681793019223], [2.128616938361939, 1.2289575377857267, 29.261831587582225], [-2.1286155235606475e-08, 2.457915112440157, 32.89546188156274]], "vdw gap": 1.8242891608959795, "bond length deviation": [["Pb", 0.5807641281236398], ["Se", 0.07439444833218062]], "bond angle deviation": [["Pb", 24.264695901946798], ["Se", 2.3818117682740163]], "mass density": 4.819739790002575, "total energy": -653.46385218, "total energy_soc": -654.55685524, "cohesive energy": 3.5481683604687553, "exfoliation energy": NaN, "born effective charge tensor": 12.970281250000003, "born effective charge q_xy": 4.361113750000002, "born effective charge q_z": 4.248053749999998, "dielectric constant XY": 16.979508, "dielectric constant Z": 19.291173, "bader charge": [["Cd", 12.0, 11.245585], ["Cd", 12.0, 11.24154], ["Cd", 12.0, 11.24154], ["Pb", 4.0, 3.171385], ["Pb", 4.0, 3.170864], ["Pb", 4.0, 3.17023], ["Pb", 4.0, 3.169406], ["Pb", 4.0, 3.169597], ["Pb", 4.0, 3.169406], ["Pb", 4.0, 3.17023], ["Pb", 4.0, 3.170864], ["Pb", 4.0, 3.171385], ["Se", 6.0, 6.824526], ["Se", 6.0, 6.800039], ["Se", 6.0, 6.797991], ["Se", 6.0, 6.821744], ["Se", 6.0, 6.823577], ["Se", 6.0, 6.801133], ["Se", 6.0, 6.801133], ["Se", 6.0, 6.823577], ["Se", 6.0, 6.821744], ["Se", 6.0, 6.79794], ["Se", 6.0, 6.800039], ["Se", 6.0, 6.824526]], "density of states at fermi": 0.004094, "effective mass": "UNKNOWN", "vbm": 0.4116000000000004, "cbm": 3.8032, "band gap": 4.2148, "vbm soc": 3.7681, "cbm soc": 4.1987, "band gap soc": 0.43059999999999965, "layered?": true, "component layers": ["CdSe2-P_3m1", "CdSe2-P_3m1", "CdSe2-P_3m1", "Pb3Se2-P_3m1", "Pb3Se2-P_3m1", "Pb3Se2-P_3m1"], "KPath": ["0.5000 0.0000 0.0000 ! M", "0.0000 0.0000 0.0000 ! G", "0.0000 0.0000 0.0000 ! G", "0.0000 0.0000 0.5000 ! A", "0.0000 0.0000 0.5000 ! A", "0.3333 0.3333 0.5000 ! H", "0.3333 0.3333 0.5000 ! H", "0.3333 0.3333 0.0000 ! K", "0.3333 0.3333 0.0000 ! K", "0.5000 0.0000 0.5000 ! L", "0.5000 0.0000 0.5000 ! L", "0.5000 0.0000 0.0000 ! M"], "band locations": "/home/gtown/Documents/carbon/mpAll/allbulk/calcs/dir_Cd3Pb9Se12-mp-1226877/scf/band", "band soc location": "/home/gtown/Documents/carbon/mpAll/allbulk/calcs/dir_Cd3Pb9Se12-mp-1226877/scf_soc/band_soc", "dos location": "/home/gtown/Documents/carbon/mpAll/allbulk/calcs/dir_Cd3Pb9Se12-mp-1226877/scf/dos"}