{"MP-ID": "mp-137", "formula": "Ge12", "spacegroup": "P4_32_12 (96)", "cell": {"array": [[6.043617124281416, 0.0, -0.0], [0.0, 6.043617124281416, -0.0], [0.0, -0.0, 6.566728811274762]]}, "symbols": ["Ge", "Ge", "Ge", "Ge", "Ge", "Ge", "Ge", "Ge", "Ge", "Ge", "Ge", "Ge"], "positions": [[0.5554819065933948, 0.5554819065933948, 0.0], [2.466326655547313, 3.577290468734104, 4.925046608456071], [3.577290468734104, 2.466326655547313, 1.6416822028186906], [5.488135217688019, 5.488135217688019, 3.283364405637381], [1.0768655417926027, 2.2697078291894406, 1.7098603813626723], [0.7521007329512678, 4.098674103933311, 0.06817817854402815], [5.291516391330147, 1.9449430203481046, 3.351542584181411], [4.098674103933311, 0.7521007329512678, -0.06817817854398218], [1.9449430203481046, 5.291516391330147, 3.2151862270933997], [4.966751582488812, 3.773909295091977, 4.993224787000055], [2.2697078291894406, 1.0768655417926027, 4.856868429912089], [3.773909295091977, 4.966751582488812, 1.5735040242747085]], "vdw gap": 1.5053258457307275, "bond length deviation": [["Ge", 0.537373724904221]], "bond angle deviation": [["Ge", 22.864218644158615]], "mass density": 3.632743339763066, "total energy": -360.30051384, "total energy_soc": -360.02751341, "cohesive energy": -16.153065240000007, "exfoliation energy": [], "born effective charge tensor": 4.400293333333334, "born effective charge q_xy": 2.704014043619021, "born effective charge q_z": 0.5762399999999999, "dielectric constant XY": 156.777837, "dielectric constant Z": 90.247211, "bader charge": [["Ge", 14.0, 13.971651], ["Ge", 14.0, 13.972049], ["Ge", 14.0, 13.971651], ["Ge", 14.0, 13.972049], ["Ge", 14.0, 14.014259], ["Ge", 14.0, 14.014259], ["Ge", 14.0, 14.013889], ["Ge", 14.0, 14.014259], ["Ge", 14.0, 14.013889], ["Ge", 14.0, 14.013889], ["Ge", 14.0, 14.013889], ["Ge", 14.0, 14.014259]], "density of states at fermi": 1.414, "effective mass": "UNKNOWN", "vbm": 0, "cbm": 0, "band gap": 0, "vbm soc": 0, "cbm soc": 0, "band gap soc": 0, "layered?": false, "component layers": [], "KPath": ["0.0000 0.0000 0.5000 ! Z", "0.0000 0.0000 0.0000 ! G", "0.0000 0.0000 0.0000 ! G", "0.5000 0.5000 0.5000 ! A", "0.5000 0.5000 0.5000 ! A", "0.5000 0.5000 0.0000 ! M", "0.5000 0.5000 0.0000 ! M", "0.0000 0.5000 0.5000 ! R", "0.0000 0.5000 0.5000 ! R", "0.0000 0.5000 0.0000 ! X", "0.0000 0.5000 0.0000 ! X", "0.0000 0.0000 0.5000 ! Z"], "band locations": "/home/gtown/Documents/carbon/mpAll/allbulk/calcs/dir_Ge12-mp-137/scf/band", "band soc location": "/home/gtown/Documents/carbon/mpAll/allbulk/calcs/dir_Ge12-mp-137/scf_soc/band_soc", "dos location": "/home/gtown/Documents/carbon/mpAll/allbulk/calcs/dir_Ge12-mp-137/scf/dos"}