{"MP-ID": "mp-998883", "formula": "Ge2", "spacegroup": "Im-3m (229)", "cell": {"array": [[3.510051597524755, 0.0, -0.0], [0.0, 3.510051597524755, 0.0], [0.0, 0.0, 3.510051597524755]]}, "symbols": ["Ge", "Ge"], "positions": [[0.0, 0.0, 0.0], [1.7550257987623774, 1.7550257987623774, 1.7550257987623774]], "vdw gap": 1.7550257987623774, "bond length deviation": [["Ge", 0.23698762792886693]], "bond angle deviation": [["Ge", 21.30474905812571]], "mass density": 3.35804050692207, "total energy": -103.01143722, "total energy_soc": -98.4248128, "cohesive energy": -37.63374103, "exfoliation energy": [], "born effective charge tensor": 0.0, "born effective charge q_xy": 0.0, "born effective charge q_z": 0.0, "dielectric constant XY": 432.595324, "dielectric constant Z": 432.595324, "bader charge": [["Ge", 14.0, 14.000308], ["Ge", 14.0, 13.999689]], "density of states at fermi": 0.9969, "effective mass": 0.8277052000460461, "vbm": 0, "cbm": 0, "band gap": 0, "vbm soc": 0, "cbm soc": 0, "band gap soc": 0, "layered?": false, "component layers": [], "KPath": ["0.0000 0.5000 0.0000 ! X", "0.0000 0.0000 0.0000 ! G", "0.0000 0.0000 0.0000 ! G", "0.5000 0.5000 0.0000 ! M", "0.5000 0.5000 0.0000 ! M", "0.5000 0.5000 0.5000 ! R", "0.5000 0.5000 0.5000 ! R", "0.0000 0.5000 0.0000 ! X"], "band locations": "/home/gtown/Documents/carbon/mpAll/allbulk/calcs/dir_Ge2-mp-998883/scf/band", "band soc location": "/home/gtown/Documents/carbon/mpAll/allbulk/calcs/dir_Ge2-mp-998883/scf_soc/band_soc", "dos location": "/home/gtown/Documents/carbon/mpAll/allbulk/calcs/dir_Ge2-mp-998883/scf/dos"}