{"MP-ID": "mp-1071032", "formula": "Ge2S4", "spacegroup": "P4_2/nmc (137)", "cell": {"array": [[3.4747851605287168, 0.0, -0.0], [0.0, 3.4747851605287168, -0.0], [-0.0, -0.0, 11.01904918516454]]}, "symbols": ["Ge", "Ge", "S", "S", "S", "S"], "positions": [[0.0, 0.0, 5.50952459258227], [1.7373925802643584, 1.7373925802643584, 0.0], [0.0, 1.7373925802643584, 9.611718579415465], [0.0, 1.7373925802643584, 4.10219398683319], [1.7373925802643584, 0.0, 6.916855198331345], [1.7373925802643584, 0.0, 1.4073306057490802]], "vdw gap": 2.6948633810841196, "bond length deviation": [["Ge", 0.6397732971395591], ["S", 1.556576346723418e-15]], "bond angle deviation": [["Ge", 19.499050796218892], ["S", 1.0760285525748777e-13]], "mass density": 2.0555681761500244, "total energy": -141.00464527, "total energy_soc": -140.99840404, "cohesive energy": -13.520756866875002, "exfoliation energy": 0.025650543431327995, "born effective charge tensor": 5.7688500000000005, "born effective charge q_xy": 2.3638600000000003, "born effective charge q_z": 1.04113, "dielectric constant XY": 7.198732, "dielectric constant Z": 5.459682, "bader charge": [["Ge", 14.0, 12.729999], ["Ge", 14.0, 12.729999], ["S", 6.0, 6.634997], ["S", 6.0, 6.634997], ["S", 6.0, 6.635004], ["S", 6.0, 6.635004]], "density of states at fermi": 0.0, "effective mass": 1433.1713381602954, "vbm": 1.1766999999999999, "cbm": 3.7155, "band gap": 4.8922, "vbm soc": 3.7751, "cbm soc": 4.9073, "band gap soc": 1.1322, "layered?": true, "component layers": ["GeS2-P_4m2", "GeS2-P_4m2"], "KPath": ["0.0000 0.0000 0.5000 ! Z", "0.0000 0.0000 0.0000 ! G", "0.0000 0.0000 0.0000 ! G", "0.5000 0.5000 0.5000 ! A", "0.5000 0.5000 0.5000 ! A", "0.5000 0.5000 0.0000 ! M", "0.5000 0.5000 0.0000 ! M", "0.0000 0.5000 0.5000 ! R", "0.0000 0.5000 0.5000 ! R", "0.0000 0.5000 0.0000 ! X", "0.0000 0.5000 0.0000 ! X", "0.0000 0.0000 0.5000 ! Z"], "band locations": "/home/gtown/Documents/carbon/mpAll/allbulk/calcs/dir_Ge2S4-mp-1071032/scf/band", "band soc location": "/home/gtown/Documents/carbon/mpAll/allbulk/calcs/dir_Ge2S4-mp-1071032/scf_soc/band_soc", "dos location": "/home/gtown/Documents/carbon/mpAll/allbulk/calcs/dir_Ge2S4-mp-1071032/scf/dos"}