{"MP-ID": "mp-1224375", "formula": "Ge2Sb2Te5", "spacegroup": "P-3m1 (164)", "cell": {"array": [[4.2475003180678295, -2e-16, 0.0], [-2.123750159033914, 3.6784431780292244, -0.0], [1e-16, -1e-16, 17.25118414685105]]}, "symbols": ["Ge", "Ge", "Sb", "Sb", "Te", "Te", "Te", "Te", "Te"], "positions": [[-2.1237487545276616e-08, 2.4522954642809522, 15.53493185015263], [2.1237501802714034, 1.2261477137482717, 1.7162522966984233], [6.871152448711892e-17, -6.871152448711892e-17, 11.853551619381536], [3.1288475512881045e-17, -3.1288475512881045e-17, 5.397632527469508], [0.0, 0.0, 0.0], [2.1237501802714034, 1.2261477137482717, 13.88856595710555], [-2.123748761583591e-08, 2.4522954642809522, 3.3626181897454996], [-2.1237487576465405e-08, 2.4522954642809522, 10.154496481468477], [2.1237501802714034, 1.2261477137482717, 7.096687665382564]], "vdw gap": 3.057808816085913, "bond length deviation": [["Ge", 0.020636897889981465], ["Sb", 0.10618002530920242]], "bond angle deviation": [["Ge", 1.3225208313579777], ["Sb", 3.8388992077813953]], "mass density": 3.809216344092479, "total energy": -241.18334768, "total energy_soc": -240.77533476, "cohesive energy": -3.88229327888889, "exfoliation energy": -0.237601353419608, "born effective charge tensor": 19.239585555555557, "born effective charge q_xy": 8.206256666666668, "born effective charge q_z": 2.827072222222222, "dielectric constant XY": 93.754066, "dielectric constant Z": 36.732481, "bader charge": [["Ge", 14.0, 13.592827], ["Ge", 14.0, 13.592827], ["Sb", 5.0, 4.480103], ["Sb", 5.0, 4.480071], ["Te", 6.0, 6.41019], ["Te", 6.0, 6.411414], ["Te", 6.0, 6.411414], ["Te", 6.0, 6.310831], ["Te", 6.0, 6.310325]], "density of states at fermi": 0.0, "effective mass": 0.06417070755095425, "vbm": 0, "cbm": 0, "band gap": 0, "vbm soc": 0, "cbm soc": 0, "band gap soc": 0, "layered?": true, "component layers": ["Ge2Sb2Te5-P_3m1"], "KPath": ["0.5000 0.0000 0.0000 ! M", "0.0000 0.0000 0.0000 ! G", "0.0000 0.0000 0.0000 ! G", "0.0000 0.0000 0.5000 ! A", "0.0000 0.0000 0.5000 ! A", "0.3333 0.3333 0.5000 ! H", "0.3333 0.3333 0.5000 ! H", "0.3333 0.3333 0.0000 ! K", "0.3333 0.3333 0.0000 ! K", "0.5000 0.0000 0.5000 ! L", "0.5000 0.0000 0.5000 ! L", "0.5000 0.0000 0.0000 ! M"], "band locations": "/home/gtown/Documents/carbon/mpAll/allbulk/calcs/dir_Ge2Sb2Te5-mp-1224375/scf/band", "band soc location": "/home/gtown/Documents/carbon/mpAll/allbulk/calcs/dir_Ge2Sb2Te5-mp-1224375/scf_soc/band_soc", "dos location": "/home/gtown/Documents/carbon/mpAll/allbulk/calcs/dir_Ge2Sb2Te5-mp-1224375/scf/dos"}