{"MP-ID": "mp-1224514", "formula": "Ge3Pb12Te15", "spacegroup": "R-3m (166)", "cell": {"array": [[4.50190841970165, -1e-16, 0.0], [-2.250954209850824, 3.898767056972685, -0.0], [-1e-16, -1e-16, 55.61993042207124]]}, "symbols": ["Ge", "Ge", "Ge", "Te", "Te", "Te", "Te", "Te", "Te", "Te", "Te", "Te", "Te", "Te", "Te", "Te", "Te", "Te", "Pb", "Pb", "Pb", "Pb", "Pb", "Pb", "Pb", "Pb", "Pb", "Pb", "Pb", "Pb"], "positions": [[0.0, 0.0, 0.0], [2.2509542323603533, 1.299589005995013, 18.53997662195743], [-2.250952740238691e-08, 2.599178050977672, 37.07995380011381], [2.2509542323603533, 1.299589005995013, 1.5842743944819535], [-2.2509527352386908e-08, 2.599178050977672, 9.269988589078192], [-9.76848238939675e-18, -9.76848238939675e-18, 5.433223108274754], [-3.048493965887284e-17, -3.048493965887284e-17, 16.955702227475477], [2.2509542323603533, 1.299589005995013, 13.106753513682674], [-2.2509527371901968e-08, 2.599178050977672, 20.124251572638336], [-5e-17, -5e-17, 27.80996521103562], [2.2509542323603533, 1.299589005995013, 23.97319973023218], [2.2509542323603533, 1.299589005995013, 35.495678849432906], [-2.2509527392618425e-08, 2.599178050977672, 31.646730691839064], [-6.951506034112715e-17, -6.951506034112715e-17, 38.664228194595765], [2.2509542323603533, 1.299589005995013, 46.34994183299305], [-2.250952741215539e-08, 2.599178050977672, 42.51317690838856], [-2.2509527432871846e-08, 2.599178050977672, 54.03565602758929], [-9.023151761060327e-17, -9.023151761060327e-17, 50.1867073137965], [-2.250952736273308e-08, 2.599178050977672, 15.024523592726277], [-2.011349951726084e-17, -2.011349951726084e-17, 11.187114436944116], [2.2509542323603533, 1.299589005995013, 7.3528621850129205], [-2.2509527342040734e-08, 2.599178050977672, 3.5154535854305067], [-6.034617440183736e-17, -6.034617440183736e-17, 33.56450021468371], [2.2509542323603533, 1.299589005995013, 29.727091058901536], [-2.250952738227341e-08, 2.599178050977672, 25.892839363169692], [-3.965382559816265e-17, -3.965382559816265e-17, 22.05543020738754], [2.2509542323603533, 1.299589005995013, 52.10447683664075], [-2.2509527422500407e-08, 2.599178050977672, 48.26706823705831], [-7.988650048273917e-17, -7.988650048273917e-17, 44.432815985127135], [2.2509542323603533, 1.299589005995013, 40.59540682934496]], "vdw gap": 1.9311791909485532, "bond length deviation": [["Ge", 1.4226471250566612e-07], ["Pb", 0.003418367927092945]], "bond angle deviation": [["Ge", 5.451165670049895], ["Pb", 1.730843883710045]], "mass density": 4.7306538701154395, "total energy": -759.03048344, "total energy_soc": -764.65852317, "cohesive energy": 11.308847442333311, "exfoliation energy": [], "born effective charge tensor": 17.914906000000002, "born effective charge q_xy": 6.0072920000000005, "born effective charge q_z": 5.900322, "dielectric constant XY": 32.524044, "dielectric constant Z": 33.658384, "bader charge": [["Ge", 14.0, 13.545751], ["Ge", 14.0, 13.545751], ["Ge", 14.0, 13.545751], ["Te", 6.0, 6.537392], ["Te", 6.0, 6.636914], ["Te", 6.0, 6.634221], ["Te", 6.0, 6.537407], ["Te", 6.0, 6.634221], ["Te", 6.0, 6.537363], ["Te", 6.0, 6.636965], ["Te", 6.0, 6.634221], ["Te", 6.0, 6.537363], ["Te", 6.0, 6.634221], ["Te", 6.0, 6.537407], ["Te", 6.0, 6.636914], ["Te", 6.0, 6.634221], ["Te", 6.0, 6.537377], ["Te", 6.0, 6.634221], ["Pb", 4.0, 3.373733], ["Pb", 4.0, 3.363354], ["Pb", 4.0, 3.363303], ["Pb", 4.0, 3.373733], ["Pb", 4.0, 3.373733], ["Pb", 4.0, 3.363303], ["Pb", 4.0, 3.363303], ["Pb", 4.0, 3.373733], ["Pb", 4.0, 3.373733], ["Pb", 4.0, 3.363303], ["Pb", 4.0, 3.363354], ["Pb", 4.0, 3.373733]], "density of states at fermi": 0.0852, "effective mass": -0.0767159910723526, "vbm": 0.5987999999999998, "cbm": 4.8487, "band gap": 5.4475, "vbm soc": 4.8243, "cbm soc": 5.4366, "band gap soc": 0.6123000000000003, "layered?": false, "component layers": [], "KPath": ["0.5000 0.0000 0.0000 ! M", "0.0000 0.0000 0.0000 ! G", "0.0000 0.0000 0.0000 ! G", "0.0000 0.0000 0.5000 ! A", "0.0000 0.0000 0.5000 ! A", "0.3333 0.3333 0.5000 ! H", "0.3333 0.3333 0.5000 ! H", "0.3333 0.3333 0.0000 ! K", "0.3333 0.3333 0.0000 ! K", "0.5000 0.0000 0.5000 ! L", "0.5000 0.0000 0.5000 ! L", "0.5000 0.0000 0.0000 ! M"], "band locations": "/home/gtown/Documents/carbon/mpAll/allbulk/calcs/dir_Ge3Pb12Te15-mp-1224514/scf/band", "band soc location": "/home/gtown/Documents/carbon/mpAll/allbulk/calcs/dir_Ge3Pb12Te15-mp-1224514/scf_soc/band_soc", "dos location": "/home/gtown/Documents/carbon/mpAll/allbulk/calcs/dir_Ge3Pb12Te15-mp-1224514/scf/dos"}