{"MP-ID": "mp-1224348", "formula": "Ge3Sb6Te12", "spacegroup": "R3m (160)", "cell": {"array": [[4.229061088116138, -1e-16, 1e-16], [-2.1145305440580686, 3.662474336464836, -0.0], [1e-16, -5e-16, 42.971635247055886]]}, "symbols": ["Ge", "Ge", "Ge", "Sb", "Sb", "Sb", "Sb", "Sb", "Sb", "Te", "Te", "Te", "Te", "Te", "Te", "Te", "Te", "Te", "Te", "Te", "Te"], "positions": [[-2.1145291853591085e-08, 2.441649569851464, 12.079760169809164], [6.144434180932117e-17, -3.0722170904660586e-16, 26.40363844225575], [2.1145305652033612, 1.2208247666133714, 40.727516714702354], [1.328196773741061e-17, -6.640983868705306e-17, 5.707478729751729], [-2.114529187779755e-08, 2.441649569851464, 1.67784617495405], [2.1145305652033612, 1.2208247666133716, 20.03135700219834], [3.723787646293255e-17, -1.8618938231466276e-16, 16.00172444740065], [-2.114529180175346e-08, 2.4416495698514638, 34.355235704361014], [2.1145305652033612, 1.2208247666133714, 30.32560271984695], [-2.114529186442458e-08, 2.441649569851464, 7.424429565471999], [2.1145305652033612, 1.2208247666133718, 3.66755337745217], [2.1145305652033612, 1.2208247666133716, 14.261112396809128], [2.486964133425271e-17, -1.2434820667126355e-16, 10.686891561406117], [5.061084530035109e-17, -2.5305422650175546e-16, 21.7483078379186], [-2.1145291839833937e-08, 2.441649569851464, 17.99143207961516], [-2.114529181518149e-08, 2.4416495698514638, 28.584991098972115], [2.1145305652033612, 1.2208247666133716, 25.010769833852418], [2.1145305652033612, 1.2208247666133714, 36.072186110364896], [7.520149085849785e-17, -3.7600745429248923e-16, 32.31531035206177], [-1.4606350276482e-19, 7.303175138241e-19, -0.06276587563717184], [-2.1145291790165784e-08, 2.4416495698514638, 39.33464853601541]], "vdw gap": 3.2624624256505115, "bond length deviation": [["Ge", 0.2382790197164552], ["Sb", 0.08908524398313435]], "bond angle deviation": [["Ge", 6.173932482381063], ["Sb", 3.8008786215421573]], "mass density": 3.7253659246383495, "total energy": -566.66264872, "total energy_soc": -567.45657774, "cohesive energy": -3.1334347561904785, "exfoliation energy": -0.008679200964386248, "born effective charge tensor": 11.551402857142858, "born effective charge q_xy": 4.942921428571428, "born effective charge q_z": 1.6655600000000004, "dielectric constant XY": 35.952043, "dielectric constant Z": 27.118515, "bader charge": [["Ge", 14.0, 13.676679], ["Ge", 14.0, 13.651661], ["Ge", 14.0, 13.667172], ["Sb", 5.0, 4.47991], ["Sb", 5.0, 4.47929], ["Sb", 5.0, 4.471473], ["Sb", 5.0, 4.488132], ["Sb", 5.0, 4.486209], ["Sb", 5.0, 4.466577], ["Te", 6.0, 6.284783], ["Te", 6.0, 6.439469], ["Te", 6.0, 6.303143], ["Te", 6.0, 6.338967], ["Te", 6.0, 6.28058], ["Te", 6.0, 6.440638], ["Te", 6.0, 6.325337], ["Te", 6.0, 6.340349], ["Te", 6.0, 6.279291], ["Te", 6.0, 6.45032], ["Te", 6.0, 6.308317], ["Te", 6.0, 6.341704]], "density of states at fermi": 0.1182, "effective mass": -3.209049543329678, "vbm": 0, "cbm": 0, "band gap": 0, "vbm soc": 0, "cbm soc": 0, "band gap soc": 0, "layered?": true, "component layers": ["GeTe-P_6m2", "GeTe-P_6m2", "GeTe-P_6m2", "Sb2Te3-P3m1", "Sb2Te3-P3m1", "Sb2Te3-P3m1"], "KPath": ["0.5000 0.0000 0.0000 ! M", "0.0000 0.0000 0.0000 ! G", "0.0000 0.0000 0.0000 ! G", "0.0000 0.0000 0.5000 ! A", "0.0000 0.0000 0.5000 ! A", "0.3333 0.3333 0.5000 ! H", "0.3333 0.3333 0.5000 ! H", "0.3333 0.3333 0.0000 ! K", "0.3333 0.3333 0.0000 ! K", "0.5000 0.0000 0.5000 ! L", "0.5000 0.0000 0.5000 ! L", "0.5000 0.0000 0.0000 ! M"], "band locations": "/home/gtown/Documents/carbon/mpAll/allbulk/calcs/dir_Ge3Sb6Te12-mp-1224348/scf/band", "band soc location": "/home/gtown/Documents/carbon/mpAll/allbulk/calcs/dir_Ge3Sb6Te12-mp-1224348/scf_soc/band_soc", "dos location": "/home/gtown/Documents/carbon/mpAll/allbulk/calcs/dir_Ge3Sb6Te12-mp-1224348/scf/dos"}