{"MP-ID": "mp-1224339", "formula": "Ge3Sb3Te9", "spacegroup": "R3m (160)", "cell": {"array": [[4.140613979555925, -4e-16, 0.0], [-2.070306989777962, 3.5858768935604117, 0.0], [-1e-16, 1e-16, 29.98152371387274]]}, "symbols": ["Ge", "Ge", "Ge", "Sb", "Sb", "Sb", "Te", "Te", "Te", "Te", "Te", "Te", "Te", "Te", "Te"], "positions": [[-2.0703056432301504e-08, 2.3905846076598567, 7.988984795645447], [-5.997969317798094e-17, 5.997969317798094e-17, 17.982825933664465], [2.07030701048102, 1.1952922859005548, 27.976667071683696], [-2.070305641193312e-08, 2.3905846076598567, 1.8822331260831864], [-3.961130987684672e-17, 3.961130987684672e-17, 11.876074264102414], [2.07030701048102, 1.1952922859005548, 21.869915402121652], [2.07030701048102, 1.1952922859005548, 9.923661056891184], [2.07030701048102, 1.1952922859005548, 3.6903791153403853], [-2.166766326966395e-17, 2.166766326966395e-17, 6.49629560143639], [-2.0703056472087733e-08, 2.3905846076598567, 19.917502494725674], [-2.0703056451297323e-08, 2.3905846076598567, 13.684220553174661], [2.07030701048102, 1.1952922859005548, 16.49013673945563], [-9.976592223331339e-17, 9.976592223331339e-17, 29.911343632744693], [-7.897551144219475e-17, 7.897551144219475e-17, 23.6780616911939], [-2.0703056493989474e-08, 2.3905846076598567, 26.483978177289906]], "vdw gap": 2.805916486096006, "bond length deviation": [["Ge", 0.13224036454126806], ["Sb", 0.045879274043514814]], "bond angle deviation": [["Ge", 3.569474357551095], ["Sb", 4.384309297536428]], "mass density": 3.889588513450467, "total energy": -384.52652923, "total energy_soc": -384.28248074, "cohesive energy": -2.469108700666667, "exfoliation energy": NaN, "born effective charge tensor": 15.310791999999998, "born effective charge q_xy": 5.093075999999999, "born effective charge q_z": 5.124639999999999, "dielectric constant XY": 46.621867, "dielectric constant Z": 141.944956, "bader charge": [["Ge", 14.0, 13.64509], ["Ge", 14.0, 13.621372], ["Ge", 14.0, 13.632721], ["Sb", 5.0, 4.4824], ["Sb", 5.0, 4.507683], ["Sb", 5.0, 4.49181], ["Te", 6.0, 6.333933], ["Te", 6.0, 6.256199], ["Te", 6.0, 6.247343], ["Te", 6.0, 6.371945], ["Te", 6.0, 6.265494], ["Te", 6.0, 6.247532], ["Te", 6.0, 6.383225], ["Te", 6.0, 6.267082], ["Te", 6.0, 6.246169]], "density of states at fermi": 7.495, "effective mass": -0.3161876642577209, "vbm": 0, "cbm": 0, "band gap": 0, "vbm soc": 0, "cbm soc": 0, "band gap soc": 0, "layered?": true, "component layers": ["GeSbTe3-P3m1", "GeSbTe3-P3m1", "GeSbTe3-P3m1"], "KPath": ["0.5000 0.0000 0.0000 ! M", "0.0000 0.0000 0.0000 ! G", "0.0000 0.0000 0.0000 ! G", "0.0000 0.0000 0.5000 ! A", "0.0000 0.0000 0.5000 ! A", "0.3333 0.3333 0.5000 ! H", "0.3333 0.3333 0.5000 ! H", "0.3333 0.3333 0.0000 ! K", "0.3333 0.3333 0.0000 ! K", "0.5000 0.0000 0.5000 ! L", "0.5000 0.0000 0.5000 ! L", "0.5000 0.0000 0.0000 ! M"], "band locations": "/home/gtown/Documents/carbon/mpAll/allbulk/calcs/dir_Ge3Sb3Te9-mp-1224339/scf/band", "band soc location": "/home/gtown/Documents/carbon/mpAll/allbulk/calcs/dir_Ge3Sb3Te9-mp-1224339/scf_soc/band_soc", "dos location": "/home/gtown/Documents/carbon/mpAll/allbulk/calcs/dir_Ge3Sb3Te9-mp-1224339/scf/dos"}