{"MP-ID": "mp-1224350", "formula": "Ge3Sb6Te12", "spacegroup": "R3m (160)", "cell": {"array": [[4.248489620644435, -3e-16, 0.0], [-2.124244810322217, 3.679299939192594, -0.0], [4e-16, -3e-16, 42.03193476645764]]}, "symbols": ["Ge", "Ge", "Ge", "Sb", "Sb", "Sb", "Sb", "Sb", "Sb", "Te", "Te", "Te", "Te", "Te", "Te", "Te", "Te", "Te", "Te", "Te", "Te"], "positions": [[-2.1242434405290236e-08, 2.452866638392721, 9.998058627497082], [2.2848059260600507e-16, -1.713604444545038e-16, 24.008703409542974], [2.1242448315646527, 1.226433300799872, 38.01934819158916], [-2.124243446335584e-08, 2.452866638392721, 3.8965344733837792], [2.1242448315646523, 1.2264333007998722, 13.896537257268566], [1.7041498903086392e-16, -1.2781124177314792e-16, 17.907179255429664], [-2.124243423485674e-08, 2.452866638392721, 27.90718245963382], [2.1242448315646527, 1.226433300799872, 31.91782403747585], [3.989140873441905e-16, -2.9918556550814287e-16, 41.91782724168], [2.1242448315646523, 1.2264333007998722, 8.615463606455315], [5.334611518928632e-17, -4.000958639196474e-17, 5.605601084200044], [2.1242448315646523, 1.2264333007998722, 1.862300685414621], [1.1579806497092405e-16, -8.684854872819302e-17, 12.168041782349757], [-2.1242434285114468e-08, 2.452866638392721, 22.626108808820888], [2.1242448315646523, 1.226433300799872, 19.616245866245933], [-2.124243434938144e-08, 2.452866638392721, 15.872945887780187], [2.1242448315646527, 1.226433300799872, 26.178686564395942], [3.4865636135411943e-16, -2.6149227101558956e-16, 36.63675359086707], [-2.1242434180424713e-08, 2.4528666383927207, 33.626891068611506], [2.8438938950461166e-16, -2.1329204212845875e-16, 29.883590669826376], [-2.1242434117972762e-08, 2.4528666383927207, 40.18933176676121]], "vdw gap": 3.009862942574955, "bond length deviation": [["Ge", 0.23629280977310896], ["Sb", 0.08889564262390962]], "bond angle deviation": [["Ge", 6.128321081841494], ["Sb", 3.4920459155392454]], "mass density": 3.7738986340400165, "total energy": -571.19426707, "total energy_soc": -571.42173365, "cohesive energy": -3.3492261061904802, "exfoliation energy": 0.0397172608764894, "born effective charge tensor": 12.688928571428573, "born effective charge q_xy": 5.320217142857143, "born effective charge q_z": 2.048494285714286, "dielectric constant XY": 45.337555, "dielectric constant Z": 50.487592, "bader charge": [["Ge", 14.0, 13.66958], ["Ge", 14.0, 13.6699], ["Ge", 14.0, 13.670947], ["Sb", 5.0, 4.489523], ["Sb", 5.0, 4.476777], ["Sb", 5.0, 4.489978], ["Sb", 5.0, 4.47693], ["Sb", 5.0, 4.494245], ["Sb", 5.0, 4.478119], ["Te", 6.0, 6.333794], ["Te", 6.0, 6.268721], ["Te", 6.0, 6.442957], ["Te", 6.0, 6.318224], ["Te", 6.0, 6.333276], ["Te", 6.0, 6.26817], ["Te", 6.0, 6.44367], ["Te", 6.0, 6.317417], ["Te", 6.0, 6.333112], ["Te", 6.0, 6.268762], ["Te", 6.0, 6.439041], ["Te", 6.0, 6.316855]], "density of states at fermi": 0.0, "effective mass": -0.14008515277824435, "vbm": 0, "cbm": 0, "band gap": 0, "vbm soc": 0, "cbm soc": 0, "band gap soc": 0, "layered?": true, "component layers": ["GeTe-P_6m2", "GeTe-P_6m2", "Sb2Te3-P3m1", "Sb2Te3-P3m1", "Sb2Te3-P3m1", "GeTe-P_6m2"], "KPath": ["0.5000 0.0000 0.0000 ! M", "0.0000 0.0000 0.0000 ! G", "0.0000 0.0000 0.0000 ! G", "0.0000 0.0000 0.5000 ! A", "0.0000 0.0000 0.5000 ! A", "0.3333 0.3333 0.5000 ! H", "0.3333 0.3333 0.5000 ! H", "0.3333 0.3333 0.0000 ! K", "0.3333 0.3333 0.0000 ! K", "0.5000 0.0000 0.5000 ! L", "0.5000 0.0000 0.5000 ! L", "0.5000 0.0000 0.0000 ! M"], "band locations": "/home/gtown/Documents/carbon/mpAll/allbulk/calcs/dir_Ge3Sb6Te12-mp-1224350/scf/band", "band soc location": "/home/gtown/Documents/carbon/mpAll/allbulk/calcs/dir_Ge3Sb6Te12-mp-1224350/scf_soc/band_soc", "dos location": "/home/gtown/Documents/carbon/mpAll/allbulk/calcs/dir_Ge3Sb6Te12-mp-1224350/scf/dos"}