{"MP-ID": "mp-938", "formula": "Ge3Te3", "spacegroup": "R3m (160)", "cell": {"array": [[4.1685402009392725, -0.0, 0.0], [-2.0842701004696353, 3.6100617107100987, -0.0], [0.0, 0.0, 10.809089723279918]]}, "symbols": ["Ge", "Ge", "Ge", "Te", "Te", "Te"], "positions": [[2.0842701213123243, 1.2033538915365014, 3.5302717223969347], [-2.0842687246344253e-08, 2.4067078191735973, 7.133301702217534], [0.0, 0.0, 10.736331573947155], [-2.0842687246344253e-08, 2.4067078191735973, 2.1012640234319124], [0.0, 0.0, 5.704293895161533], [2.0842701213123243, 1.2033538915365014, 9.30732376689123]], "vdw gap": 2.1740221727645985, "bond length deviation": [["Ge", 0.2285690707648781]], "bond angle deviation": [["Ge", 6.059904965233579]], "mass density": 3.6924895810817384, "total energy": -163.5820411, "total energy_soc": -163.9166073, "cohesive energy": -7.619072571666668, "exfoliation energy": -0.08459777756377745, "born effective charge tensor": 9.24661, "born effective charge q_xy": 3.1441200000000005, "born effective charge q_z": 2.95837, "dielectric constant XY": 21.043664, "dielectric constant Z": 26.231075, "bader charge": [["Ge", 14.0, 13.645362], ["Ge", 14.0, 13.654498], ["Ge", 14.0, 13.660478], ["Te", 6.0, 6.337923], ["Te", 6.0, 6.357065], ["Te", 6.0, 6.344675]], "density of states at fermi": 0.0, "effective mass": -0.18525892865112084, "vbm": 0, "cbm": 0, "band gap": 0, "vbm soc": 5.989, "cbm soc": 6.5217, "band gap soc": 0.5327000000000002, "layered?": true, "component layers": ["GeTe-P_6m2", "GeTe-P_6m2", "GeTe-P_6m2"], "KPath": ["0.5000 0.0000 0.0000 ! M", "0.0000 0.0000 0.0000 ! G", "0.0000 0.0000 0.0000 ! G", "0.0000 0.0000 0.5000 ! A", "0.0000 0.0000 0.5000 ! A", "0.3333 0.3333 0.5000 ! H", "0.3333 0.3333 0.5000 ! H", "0.3333 0.3333 0.0000 ! K", "0.3333 0.3333 0.0000 ! K", "0.5000 0.0000 0.5000 ! L", "0.5000 0.0000 0.5000 ! L", "0.5000 0.0000 0.0000 ! M"], "band locations": "/home/gtown/Documents/carbon/mpAll/allbulk/calcs/dir_Ge3Te3-mp-938/scf/band", "band soc location": "/home/gtown/Documents/carbon/mpAll/allbulk/calcs/dir_Ge3Te3-mp-938/scf_soc/band_soc", "dos location": "/home/gtown/Documents/carbon/mpAll/allbulk/calcs/dir_Ge3Te3-mp-938/scf/dos"}