{"MP-ID": "mp-1172873", "formula": "Ge3Te3", "spacegroup": "R3m (160)", "cell": {"array": [[5.106855806516766, -1e-16, 1e-16], [-2.553427903258382, 4.422666861907587, -2e-16], [1e-16, 2e-16, 8.34315745229797]]}, "symbols": ["Ge", "Ge", "Ge", "Te", "Te", "Te"], "positions": [[-2.5534262424537727e-08, 2.9484445893472713, 6.91907516711258], [1.6264467965058902e-17, 3.2528935930117805e-17, 1.3569701711034277], [2.5534279287926465, 1.4742222725603151, 4.138022627392184], [-2.5534262457066664e-08, 2.9484445893472713, 4.205134824905786], [8.37355320349411e-17, 1.674710640698822e-16, 6.9861872811945425], [2.5534279287926465, 1.4742222725603151, 1.4240822851853883]], "vdw gap": 2.7139403422067954, "bond length deviation": [["Ge", 0.10640392611180866]], "bond angle deviation": [["Ge", 14.73757104333581]], "mass density": 3.1874160691019866, "total energy": -169.43737858, "total energy_soc": -169.41728595, "cohesive energy": -8.59496215166667, "exfoliation energy": [], "born effective charge tensor": 6.138279999999999, "born effective charge q_xy": 2.18008, "born effective charge q_z": 1.7781199999999997, "dielectric constant XY": 17.701246, "dielectric constant Z": 10.872956, "bader charge": [["Ge", 14.0, 13.674361], ["Ge", 14.0, 13.668616], ["Ge", 14.0, 13.636441], ["Te", 6.0, 6.381153], ["Te", 6.0, 6.306975], ["Te", 6.0, 6.332453]], "density of states at fermi": 2.147, "effective mass": -0.25149287517706115, "vbm": 0.6322999999999999, "cbm": 4.5437, "band gap": 5.176, "vbm soc": 4.5082, "cbm soc": 5.1566, "band gap soc": 0.6483999999999996, "layered?": false, "component layers": [], "KPath": ["0.5000 0.0000 0.0000 ! M", "0.0000 0.0000 0.0000 ! G", "0.0000 0.0000 0.0000 ! G", "0.0000 0.0000 0.5000 ! A", "0.0000 0.0000 0.5000 ! A", "0.3333 0.3333 0.5000 ! H", "0.3333 0.3333 0.5000 ! H", "0.3333 0.3333 0.0000 ! K", "0.3333 0.3333 0.0000 ! K", "0.5000 0.0000 0.5000 ! L", "0.5000 0.0000 0.5000 ! L", "0.5000 0.0000 0.0000 ! M"], "band locations": "/home/gtown/Documents/carbon/mpAll/allbulk/calcs/dir_Ge3Te3-mp-1172873/scf/band", "band soc location": "/home/gtown/Documents/carbon/mpAll/allbulk/calcs/dir_Ge3Te3-mp-1172873/scf_soc/band_soc", "dos location": "/home/gtown/Documents/carbon/mpAll/allbulk/calcs/dir_Ge3Te3-mp-1172873/scf/dos"}