{"MP-ID": "mp-10759", "formula": "Ge4Se4", "spacegroup": "Fm-3m (225)", "cell": {"array": [[5.494481378281763, -0.0, 0.0], [-0.0, 5.494481378281763, 0.0], [0.0, -0.0, 5.494481378281763]]}, "symbols": ["Ge", "Ge", "Ge", "Ge", "Se", "Se", "Se", "Se"], "positions": [[0.0, 0.0, 0.0], [0.0, 2.7472406891408814, 2.7472406891408814], [2.7472406891408814, 0.0, 2.7472406891408814], [2.7472406891408814, 2.7472406891408814, 0.0], [0.0, 2.7472406891408814, 0.0], [0.0, 0.0, 2.7472406891408814], [2.7472406891408814, 2.7472406891408814, 2.7472406891408814], [2.7472406891408814, 0.0, 0.0]], "vdw gap": 2.7472406891408814, "bond length deviation": [["Ge", 0.0], ["Se", 0.0]], "bond angle deviation": [["Ge", 0.0], ["Se", 0.0]], "mass density": 3.6550483345247686, "total energy": -144.14860609, "total energy_soc": -144.31762564, "cohesive energy": -3.9268068557812477, "exfoliation energy": [], "born effective charge tensor": 14.019000000000002, "born effective charge q_xy": 4.673000000000001, "born effective charge q_z": 4.673000000000001, "dielectric constant XY": 20.744645, "dielectric constant Z": 20.744645, "bader charge": [["Ge", 14.0, 13.333447], ["Ge", 14.0, 13.333447], ["Ge", 14.0, 13.333455], ["Ge", 14.0, 13.333455], ["Se", 6.0, 6.666547], ["Se", 6.0, 6.666547], ["Se", 6.0, 6.666555], ["Se", 6.0, 6.666555]], "density of states at fermi": 1.138, "effective mass": -0.025452807199021595, "vbm": 0, "cbm": 0, "band gap": 0, "vbm soc": 0, "cbm soc": 0, "band gap soc": 0, "layered?": false, "component layers": [], "KPath": ["0.0000 0.5000 0.0000 ! X", "0.0000 0.0000 0.0000 ! G", "0.0000 0.0000 0.0000 ! G", "0.5000 0.5000 0.0000 ! M", "0.5000 0.5000 0.0000 ! M", "0.5000 0.5000 0.5000 ! R", "0.5000 0.5000 0.5000 ! R", "0.0000 0.5000 0.0000 ! X"], "band locations": "/home/gtown/Documents/carbon/mpAll/allbulk/calcs/dir_Ge4Se4-mp-10759/scf/band", "band soc location": "/home/gtown/Documents/carbon/mpAll/allbulk/calcs/dir_Ge4Se4-mp-10759/scf_soc/band_soc", "dos location": "/home/gtown/Documents/carbon/mpAll/allbulk/calcs/dir_Ge4Se4-mp-10759/scf/dos"}