{"MP-ID": "mp-9935", "formula": "Ge4Sb4", "spacegroup": "Fm-3m (225)", "cell": {"array": [[5.693411083875779, 0.0, 0.0], [0.0, 5.693411083875779, 0.0], [-0.0, -0.0, 5.693411083875779]]}, "symbols": ["Ge", "Ge", "Ge", "Ge", "Sb", "Sb", "Sb", "Sb"], "positions": [[0.0, 0.0, 0.0], [0.0, 2.8467055419378897, 2.8467055419378897], [2.8467055419378897, 0.0, 2.8467055419378897], [2.8467055419378897, 2.8467055419378897, 0.0], [2.8467055419378897, 0.0, 0.0], [2.8467055419378897, 2.8467055419378897, 2.8467055419378897], [0.0, 0.0, 2.8467055419378897], [0.0, 2.8467055419378897, 0.0]], "vdw gap": 2.8467055419378897, "bond length deviation": [["Ge", 1.3609218244476896e-15], ["Sb", 0.5597546093030482]], "bond angle deviation": [["Ge", 0.0], ["Sb", 19.510993085307952]], "mass density": 4.212590598902246, "total energy": -143.36921553, "total energy_soc": -143.29501895, "cohesive energy": 1.8679947137500008, "exfoliation energy": [], "born effective charge tensor": 0.8024099999999998, "born effective charge q_xy": 0.26746999999999993, "born effective charge q_z": 0.26746999999999993, "dielectric constant XY": 81.017879, "dielectric constant Z": 81.017879, "bader charge": [["Ge", 14.0, 14.222931], ["Ge", 14.0, 14.222931], ["Ge", 14.0, 14.222931], ["Ge", 14.0, 14.222931], ["Sb", 5.0, 4.777066], ["Sb", 5.0, 4.777066], ["Sb", 5.0, 4.777066], ["Sb", 5.0, 4.777066]], "density of states at fermi": 2.182, "effective mass": -0.029177210576712683, "vbm": 0, "cbm": 0, "band gap": 0, "vbm soc": 0, "cbm soc": 0, "band gap soc": 0, "layered?": false, "component layers": [], "KPath": ["0.0000 0.5000 0.0000 ! X", "0.0000 0.0000 0.0000 ! G", "0.0000 0.0000 0.0000 ! G", "0.5000 0.5000 0.0000 ! M", "0.5000 0.5000 0.0000 ! M", "0.5000 0.5000 0.5000 ! R", "0.5000 0.5000 0.5000 ! R", "0.0000 0.5000 0.0000 ! X"], "band locations": "/home/gtown/Documents/carbon/mpAll/allbulk/calcs/dir_Ge4Sb4-mp-9935/scf/band", "band soc location": "/home/gtown/Documents/carbon/mpAll/allbulk/calcs/dir_Ge4Sb4-mp-9935/scf_soc/band_soc", "dos location": "/home/gtown/Documents/carbon/mpAll/allbulk/calcs/dir_Ge4Sb4-mp-9935/scf/dos"}