{"MP-ID": "mp-10074", "formula": "Ge4Se8", "spacegroup": "I-42d (122)", "cell": {"array": [[5.736638382567321, -0.0, 0.0], [-0.0, 5.736638382567321, 0.0], [-0.0, -0.0, 9.802381738052592]]}, "symbols": ["Ge", "Ge", "Ge", "Ge", "Se", "Se", "Se", "Se", "Se", "Se", "Se", "Se"], "positions": [[0.0, 2.8683191912836605, 2.450595434513148], [2.8683191912836605, 2.8683191912836605, 4.901190869026296], [2.8683191912836605, 0.0, 7.351786303539444], [0.0, 0.0, 0.0], [1.4341595956418303, 1.433760779199193, 3.675893151769722], [1.433760779199193, 4.302478786925491, 6.1264885862828695], [4.3028776033681275, 1.4341595956418303, 6.1264885862828695], [4.302478786925491, 4.3028776033681275, 3.675893151769722], [4.302478786925491, 4.302079970482854, 8.577084020796018], [4.302079970482854, 1.4341595956418303, 1.225297717256574], [1.4345584120844674, 4.302478786925491, 1.225297717256574], [1.4341595956418303, 1.4345584120844674, 8.577084020796018]], "vdw gap": 1.2252977172565744, "bond length deviation": [["Ge", 7.251946429389431e-16], ["Se", 7.251946429389431e-16]], "bond angle deviation": [["Ge", 5.887798372820773], ["Se", 2.1484792853768067e-14]], "mass density": 2.8585176721385994, "total energy": -312.32223792, "total energy_soc": -312.39836308, "cohesive energy": -11.861820479375004, "exfoliation energy": [], "born effective charge tensor": 5.6412233333333335, "born effective charge q_xy": 1.8015933333333336, "born effective charge q_z": 2.0380366666666663, "dielectric constant XY": 7.817554, "dielectric constant Z": 9.213628, "bader charge": [["Ge", 14.0, 13.105954], ["Ge", 14.0, 13.105954], ["Ge", 14.0, 13.105954], ["Ge", 14.0, 13.105954], ["Se", 6.0, 6.447025], ["Se", 6.0, 6.446944], ["Se", 6.0, 6.447098], ["Se", 6.0, 6.447025], ["Se", 6.0, 6.447025], ["Se", 6.0, 6.447021], ["Se", 6.0, 6.447021], ["Se", 6.0, 6.447025]], "density of states at fermi": 0.04143, "effective mass": 0.4552024821955036, "vbm": 1.4683000000000002, "cbm": 2.3413, "band gap": 3.8096, "vbm soc": 2.3316, "cbm soc": 3.8024, "band gap soc": 1.4708, "layered?": false, "component layers": [], "KPath": ["0.0000 0.0000 0.5000 ! Z", "0.0000 0.0000 0.0000 ! G", "0.0000 0.0000 0.0000 ! G", "0.5000 0.5000 0.5000 ! A", "0.5000 0.5000 0.5000 ! A", "0.5000 0.5000 0.0000 ! M", "0.5000 0.5000 0.0000 ! M", "0.0000 0.5000 0.5000 ! R", "0.0000 0.5000 0.5000 ! R", "0.0000 0.5000 0.0000 ! X", "0.0000 0.5000 0.0000 ! X", "0.0000 0.0000 0.5000 ! Z"], "band locations": "/home/gtown/Documents/carbon/mpAll/allbulk/calcs/dir_Ge4Se8-mp-10074/scf/band", "band soc location": "/home/gtown/Documents/carbon/mpAll/allbulk/calcs/dir_Ge4Se8-mp-10074/scf_soc/band_soc", "dos location": "/home/gtown/Documents/carbon/mpAll/allbulk/calcs/dir_Ge4Se8-mp-10074/scf/dos"}