{"MP-ID": "mp-700", "formula": "Ge4Se4", "spacegroup": "Pnma (62)", "cell": {"array": [[3.8192964920416936, 0.0, 0.0], [1e-16, 4.551208411541142, 0.0], [0.0, 0.0, 11.44895988435879]]}, "symbols": ["Ge", "Ge", "Ge", "Ge", "Se", "Se", "Se", "Se"], "positions": [[0.9548241230104234, 0.47962421138167866, 1.5288267936231175], [2.86447236903127, 4.071584200159463, 9.92013309073567], [2.86447236903127, 2.755228417152251, 4.195653148556278], [0.9548241230104234, 1.7959799943888934, 7.253306735802514], [0.9548241230104234, 2.3724020942502158, 9.725914529740974], [2.86447236903127, 2.1788063172909276, 1.7230453546178162], [2.86447236903127, 0.09679788847964413, 7.44752529679721], [0.9548241230104235, 4.454410523061498, 4.001434587561579]], "vdw gap": 3.0576535872462367, "bond length deviation": [["Ge", 0.4436547343227552], ["Se", 0.44365473432275515]], "bond angle deviation": [["Ge", 11.609873105014463], ["Se", 11.931244162373979]], "mass density": 3.046471438740344, "total energy": -231.20229279, "total energy_soc": -231.23822267, "cohesive energy": -14.80851769328125, "exfoliation energy": 0.62027977966958, "born effective charge tensor": 6.97176, "born effective charge q_xy": 3.6135720923346746, "born effective charge q_z": 1.89795, "dielectric constant XY": 20.946496338721303, "dielectric constant Z": 17.796687, "bader charge": [["Ge", 14.0, 13.356429], ["Ge", 14.0, 13.356429], ["Ge", 14.0, 13.356429], ["Ge", 14.0, 13.356429], ["Se", 6.0, 6.643571], ["Se", 6.0, 6.643571], ["Se", 6.0, 6.643571], ["Se", 6.0, 6.643571]], "density of states at fermi": 0.02628, "effective mass": "UNKNOWN", "vbm": 0.8129999999999997, "cbm": 3.617, "band gap": 4.43, "vbm soc": 3.6446, "cbm soc": 4.4295, "band gap soc": 0.7848999999999999, "layered?": true, "component layers": ["Ge2Se2-Pmn2_1", "Ge2Se2-Pmn2_1"], "KPath": ["0.0000 0.0000 0.5000 ! Z", "0.0000 0.0000 0.0000 ! G", "0.0000 0.0000 0.0000 ! G", "0.5000 0.5000 0.5000 ! R", "0.5000 0.5000 0.5000 ! R", "0.5000 0.5000 0.0000 ! S", "0.5000 0.5000 0.0000 ! S", "0.0000 0.5000 0.5000 ! T", "0.0000 0.5000 0.5000 ! T", "0.5000 0.0000 0.5000 ! U", "0.5000 0.0000 0.5000 ! U", "0.5000 0.0000 0.0000 ! X", "0.5000 0.0000 0.0000 ! X", "0.0000 0.5000 0.0000 ! Y", "0.0000 0.5000 0.0000 ! Y", "0.0000 0.0000 0.5000 ! Z"], "band locations": "/home/gtown/Documents/carbon/mpAll/allbulk/calcs/dir_Ge4Se4-mp-700/scf/band", "band soc location": "/home/gtown/Documents/carbon/mpAll/allbulk/calcs/dir_Ge4Se4-mp-700/scf_soc/band_soc", "dos location": "/home/gtown/Documents/carbon/mpAll/allbulk/calcs/dir_Ge4Se4-mp-700/scf/dos"}