{"MP-ID": "mp-2242", "formula": "Ge4S4", "spacegroup": "Pnma (62)", "cell": {"array": [[3.5935023304216664, -2e-16, 0.0], [3e-16, 4.481797510473021, 0.0], [0.0, 0.0, 11.03579830703285]]}, "symbols": ["Ge", "Ge", "Ge", "Ge", "S", "S", "S", "S"], "positions": [[0.8983755826054167, 1.706812716484729, 9.590439612437457], [2.69512674781625, 2.7749847939882923, 1.445358694595395], [2.6951267478162504, 3.94771147172124, 6.963257848111818], [0.8983755826054166, 0.5340860387517815, 4.072540458921031], [0.8983755826054167, 2.3585564345458487, 7.254520170704247], [2.69512674781625, 2.1232410759271714, 3.7812781363286043], [2.69512674781625, 0.11765767930933904, 9.29917728984503], [0.898375582605417, 4.364139831163683, 1.7366210171878207]], "vdw gap": 2.8907173891907867, "bond length deviation": [["Ge", 0.5330785718831663], ["S", 0.501844157348181]], "bond angle deviation": [["Ge", 25.225518747378334], ["S", 14.346829334020427]], "mass density": 2.3557716625637295, "total energy": -212.3220169, "total energy_soc": -212.30352653, "cohesive energy": -15.587244708906251, "exfoliation energy": 0.5256574694739373, "born effective charge tensor": 7.3652, "born effective charge q_xy": 3.579829286167149, "born effective charge q_z": 2.32621, "dielectric constant XY": 15.461974367313154, "dielectric constant Z": 14.637627, "bader charge": [["Ge", 14.0, 13.192721], ["Ge", 14.0, 13.192721], ["Ge", 14.0, 13.192721], ["Ge", 14.0, 13.192721], ["S", 6.0, 6.80728], ["S", 6.0, 6.80728], ["S", 6.0, 6.80728], ["S", 6.0, 6.80728]], "density of states at fermi": 0.01075, "effective mass": "UNKNOWN", "vbm": 0.9863, "cbm": 4.3858, "band gap": 5.3721, "vbm soc": 4.415, "cbm soc": 5.3731, "band gap soc": 0.9581, "layered?": true, "component layers": ["Ge2S2-Pmn2_1", "Ge2S2-Pmn2_1"], "KPath": ["0.0000 0.0000 0.5000 ! Z", "0.0000 0.0000 0.0000 ! G", "0.0000 0.0000 0.0000 ! G", "0.5000 0.5000 0.5000 ! R", "0.5000 0.5000 0.5000 ! R", "0.5000 0.5000 0.0000 ! S", "0.5000 0.5000 0.0000 ! S", "0.0000 0.5000 0.5000 ! T", "0.0000 0.5000 0.5000 ! T", "0.5000 0.0000 0.5000 ! U", "0.5000 0.0000 0.5000 ! U", "0.5000 0.0000 0.0000 ! X", "0.5000 0.0000 0.0000 ! X", "0.0000 0.5000 0.0000 ! Y", "0.0000 0.5000 0.0000 ! Y", "0.0000 0.0000 0.5000 ! Z"], "band locations": "/home/gtown/Documents/carbon/mpAll/allbulk/calcs/dir_Ge4S4-mp-2242/scf/band", "band soc location": "/home/gtown/Documents/carbon/mpAll/allbulk/calcs/dir_Ge4S4-mp-2242/scf_soc/band_soc", "dos location": "/home/gtown/Documents/carbon/mpAll/allbulk/calcs/dir_Ge4S4-mp-2242/scf/dos"}