{"MP-ID": "mp-7582", "formula": "Ge4S8", "spacegroup": "I-42d (122)", "cell": {"array": [[5.487057494167107, 0.0, 0.0], [0.0, 5.487057494167107, 0.0], [0.0, -0.0, 9.252945617808905]]}, "symbols": ["Ge", "Ge", "Ge", "Ge", "S", "S", "S", "S", "S", "S", "S", "S"], "positions": [[2.7435287470835537, 2.7435287470835537, 4.6264728089044524], [0.0, 2.7435287470835537, 2.3132364044522262], [0.0, 0.0, 0.0], [2.7435287470835537, 0.0, 6.939709213356679], [1.3717643735417768, 1.4276585195770002, 3.4698546066783393], [1.4276585195770002, 4.1152931206253305, 5.783091011130566], [4.1152931206253305, 4.059398974590107, 3.4698546066783393], [4.059398974590107, 1.3717643735417768, 5.783091011130566], [4.1152931206253305, 4.171187266660554, 8.096327415582792], [4.171187266660554, 1.3717643735417768, 1.1566182022261131], [1.3717643735417768, 1.3158702275065528, 8.096327415582792], [1.3158702275065528, 4.1152931206253305, 1.1566182022261131]], "vdw gap": 1.1566182022261131, "bond length deviation": [["Ge", 0.6926620324868207], ["S", 3.9720546451956367e-16]], "bond angle deviation": [["Ge", 18.304233665412706], ["S", 1.519204271928768e-14]], "mass density": 1.9633733312661417, "total energy": -282.61289296, "total energy_soc": -282.61142282, "cohesive energy": -13.57105706854167, "exfoliation energy": [], "born effective charge tensor": 6.003003333333332, "born effective charge q_xy": 1.9178266666666663, "born effective charge q_z": 2.1673499999999994, "dielectric constant XY": 5.825956, "dielectric constant Z": 6.504537, "bader charge": [["Ge", 14.0, 12.718716], ["Ge", 14.0, 12.718716], ["Ge", 14.0, 12.718716], ["Ge", 14.0, 12.718716], ["S", 6.0, 6.640645], ["S", 6.0, 6.640641], ["S", 6.0, 6.640645], ["S", 6.0, 6.640641], ["S", 6.0, 6.640645], ["S", 6.0, 6.640829], ["S", 6.0, 6.640645], ["S", 6.0, 6.640452]], "density of states at fermi": 0.0, "effective mass": 0.5509403786396067, "vbm": 2.4544, "cbm": 2.6489, "band gap": 5.1033, "vbm soc": 2.6386, "cbm soc": 5.0965, "band gap soc": 2.4579, "layered?": false, "component layers": [], "KPath": ["0.0000 0.0000 0.5000 ! Z", "0.0000 0.0000 0.0000 ! G", "0.0000 0.0000 0.0000 ! G", "0.5000 0.5000 0.5000 ! A", "0.5000 0.5000 0.5000 ! A", "0.5000 0.5000 0.0000 ! M", "0.5000 0.5000 0.0000 ! M", "0.0000 0.5000 0.5000 ! R", "0.0000 0.5000 0.5000 ! R", "0.0000 0.5000 0.0000 ! X", "0.0000 0.5000 0.0000 ! X", "0.0000 0.0000 0.5000 ! Z"], "band locations": "/home/gtown/Documents/carbon/mpAll/allbulk/calcs/dir_Ge4S8-mp-7582/scf/band", "band soc location": "/home/gtown/Documents/carbon/mpAll/allbulk/calcs/dir_Ge4S8-mp-7582/scf_soc/band_soc", "dos location": "/home/gtown/Documents/carbon/mpAll/allbulk/calcs/dir_Ge4S8-mp-7582/scf/dos"}