{"MP-ID": "mp-1080459", "formula": "Ge4Te4", "spacegroup": "Pnma (62)", "cell": {"array": [[4.229302893158042, 2e-16, 0.0], [-0.0, 4.339745046106915, 0.0], [0.0, 0.0, 12.621329840205487]]}, "symbols": ["Ge", "Ge", "Ge", "Ge", "Te", "Te", "Te", "Te"], "positions": [[1.0573257232895106, 1.8060220184492894, 8.247032772236349], [1.0573257232895106, 0.36385050460416796, 1.9363678521336094], [3.1719771698685317, 2.533723027657626, 4.3742970679691355], [3.1719771698685317, 3.9758945415027473, 10.684961988071882], [1.0573257232895106, 2.121092608668749, 10.936781349303041], [1.0573257232895106, 0.04877991438470827, 4.626116429200296], [3.1719771698685317, 2.2186524374381675, 1.684548490902446], [3.1719771698685317, -0.04877991438470851, 7.99521341100519]], "vdw gap": 3.3690969818048933, "bond length deviation": [["Ge", 0.24869831832055522]], "bond angle deviation": [["Ge", 6.099746287428661]], "mass density": 3.457065713481582, "total energy": -229.93417777, "total energy_soc": -230.15736562, "cohesive energy": -9.097171276250002, "exfoliation energy": 0.18352812493642437, "born effective charge tensor": 7.32759, "born effective charge q_xy": 4.897509372834319, "born effective charge q_z": 0.40307, "dielectric constant XY": 40.79510131817281, "dielectric constant Z": 12.228788, "bader charge": [["Ge", 14.0, 13.639079], ["Ge", 14.0, 13.639079], ["Ge", 14.0, 13.639079], ["Ge", 14.0, 13.639079], ["Te", 6.0, 6.360921], ["Te", 6.0, 6.360921], ["Te", 6.0, 6.360921], ["Te", 6.0, 6.360921]], "density of states at fermi": 0.0, "effective mass": -0.08516104945418863, "vbm": 0.8657000000000004, "cbm": 5.0676, "band gap": 5.9333, "vbm soc": 5.2998, "cbm soc": 5.9383, "band gap soc": 0.6384999999999996, "layered?": true, "component layers": ["Ge2Te2-Pmn2_1", "Ge2Te2-Pmn2_1"], "KPath": ["0.0000 0.0000 0.5000 ! Z", "0.0000 0.0000 0.0000 ! G", "0.0000 0.0000 0.0000 ! G", "0.5000 0.5000 0.5000 ! R", "0.5000 0.5000 0.5000 ! R", "0.5000 0.5000 0.0000 ! S", "0.5000 0.5000 0.0000 ! S", "0.0000 0.5000 0.5000 ! T", "0.0000 0.5000 0.5000 ! T", "0.5000 0.0000 0.5000 ! U", "0.5000 0.0000 0.5000 ! U", "0.5000 0.0000 0.0000 ! X", "0.5000 0.0000 0.0000 ! X", "0.0000 0.5000 0.0000 ! Y", "0.0000 0.5000 0.0000 ! Y", "0.0000 0.0000 0.5000 ! Z"], "band locations": "/home/gtown/Documents/carbon/mpAll/allbulk/calcs/dir_Ge4Te4-mp-1080459/scf/band", "band soc location": "/home/gtown/Documents/carbon/mpAll/allbulk/calcs/dir_Ge4Te4-mp-1080459/scf_soc/band_soc", "dos location": "/home/gtown/Documents/carbon/mpAll/allbulk/calcs/dir_Ge4Te4-mp-1080459/scf/dos"}