{"MP-ID": "mp-664137", "formula": "Ge6S12", "spacegroup": "P1 (1)", "cell": {"array": [[6.801428417978248, -0.3215241776857478, -0.0008796104984188], [-3.0501252008061934, 6.087908785752852, -0.0010000521124559], [-1.878170244826735, -2.888926690284746, 11.256267407713342]]}, "symbols": ["Ge", "Ge", "Ge", "Ge", "Ge", "Ge", "S", "S", "S", "S", "S", "S", "S", "S", "S", "S", "S", "S"], "positions": [[2.445147990311895, -1.6488683431978666, 5.6253815382496875], [0.9229713925355892, 1.4005845860550465, -0.0020540112366219812], [0.7003908094200062, 3.731482104015408, 2.5302844400274496], [1.2761099229403465, -0.7505124876863549, 8.733314389203999], [4.671163369320204, -0.9048450533932286, 8.157081875560015], [2.2153494479226303, 0.6913165534038228, 3.1041087590121665], [-0.8488875459151944, 2.981788562693489, 3.952768181334783], [-1.8212114462666424, 3.6210310443772595, 7.304494725131076], [4.616697562495974, -2.624680056657722, 9.58006461678827], [0.6654614610994684, -0.045170704409740366, 1.6753562994802011], [4.623755019800408, -1.7195121131901965, 6.09841046856586], [1.4617396275432204, 0.2943026795104551, 5.150406349999938], [-0.02442596555065866, 3.3626698570168676, 0.4708685159060495], [1.2203889596688813, -1.5979079324670957, 10.780692487623817], [4.216796037114094, -0.19216322010351378, 2.741898440065285], [3.055551078767677, 0.5680204252967418, 8.52883807275962], [-0.34212914997048244, 0.7214940856156077, 8.370216351524043], [2.7019982021712328, 2.8523152373779643, 2.903400306743999]], "vdw gap": 1.206084256565216, "bond length deviation": [["Ge", 0.6169253655649356], ["S", 0.006722074444950035]], "bond angle deviation": [["Ge", 23.05254166008478], ["S", 0.6488392293869005]], "mass density": 1.803169790474294, "total energy": -421.25255174, "total energy_soc": -421.19566634, "cohesive energy": -13.422902196319448, "exfoliation energy": [], "born effective charge tensor": 5.4569616666666665, "born effective charge q_xy": 2.3154579271818747, "born effective charge q_z": 2.191993888888889, "dielectric constant XY": 7.211900170022114, "dielectric constant Z": 5.5881, "bader charge": [["Ge", 14.0, 12.70871], ["Ge", 14.0, 12.710843], ["Ge", 14.0, 12.69822], ["Ge", 14.0, 12.700651], ["Ge", 14.0, 12.700868], ["Ge", 14.0, 12.709482], ["S", 6.0, 6.659801], ["S", 6.0, 6.660927], ["S", 6.0, 6.651627], ["S", 6.0, 6.653091], ["S", 6.0, 6.636027], ["S", 6.0, 6.634337], ["S", 6.0, 6.63931], ["S", 6.0, 6.634956], ["S", 6.0, 6.648224], ["S", 6.0, 6.648196], ["S", 6.0, 6.653646], ["S", 6.0, 6.651086]], "density of states at fermi": 30.31, "effective mass": -4.053884110539881, "vbm": 2.3820000000000006, "cbm": 1.8027, "band gap": 4.1847, "vbm soc": 1.8038, "cbm soc": 4.185, "band gap soc": 2.3811999999999998, "layered?": false, "component layers": [], "KPath": ["0.0000 0.0000 -0.5000 ! Z", "0.0000 0.0000 0.0000 ! G", "0.0000 0.0000 0.0000 ! G", "0.3281 0.3281 -0.8281 ! A", "0.3281 0.3281 -0.8281 ! A", "0.6719 -0.3281 -0.1719 ! A1", "0.6719 -0.3281 -0.1719 ! A1", "0.5000 0.0000 -0.5000 ! L", "0.5000 0.0000 -0.5000 ! L", "0.5000 -0.5000 -0.5000 ! T", "0.5000 -0.5000 -0.5000 ! T", "0.3836 0.3836 -0.3836 ! X", "0.3836 0.3836 -0.3836 ! X", "0.6164 -0.3836 -0.6164 ! X1", "0.6164 -0.3836 -0.6164 ! X1", "0.5000 -0.5000 0.0000 ! Y", "0.5000 -0.5000 0.0000 ! Y", "0.0000 0.0000 -0.5000 ! Z"], "band locations": "/home/gtown/Documents/carbon/mpAll/allbulk/calcs/dir_Ge6S12-mp-664137/scf/band", "band soc location": "/home/gtown/Documents/carbon/mpAll/allbulk/calcs/dir_Ge6S12-mp-664137/scf_soc/band_soc", "dos location": "/home/gtown/Documents/carbon/mpAll/allbulk/calcs/dir_Ge6S12-mp-664137/scf/dos"}