{"MP-ID": "mp-1193697", "formula": "Ge8S20", "spacegroup": "P-1 (2)", "cell": {"array": [[7.689738065806048, -0.0670621396239073, -0.5050023368613635], [0.0582958274839333, 9.382884453186485, -0.3460992463520364], [-4.387318361883378, -1.0106885197006068, 10.115221341078998]]}, "symbols": ["Ge", "Ge", "Ge", "Ge", "Ge", "Ge", "Ge", "Ge", "S", "S", "S", "S", "S", "S", "S", "S", "S", "S", "S", "S", "S", "S", "S", "S", "S", "S", "S", "S"], "positions": [[0.7778014086980954, 2.1420400830842574, -0.10725830632439065], [6.9702324845918895, 7.173782230478313, -0.7438432768890064], [1.8649159325349982, 4.829198363947061, 1.735797174172658], [1.4957995988716073, 3.4759354299149083, 7.528322583692941], [-0.15995967328349672, 2.4255005563518006, 3.162444306187876], [3.5206752046900984, 5.879633237510166, 6.101675451677728], [3.100417092198317, 1.744459966283759, 2.419777600213471], [0.2602984392082867, 6.560673827578213, 6.844342157652127], [6.710301694065438, 1.7232587587492343, 0.7047920271033828], [-3.3495861626588317, 6.581875035112735, 8.559327730762211], [0.1642001434645039, 4.61222917081687, 3.1494098878496644], [3.1965153879421044, 3.6929046230451035, 6.114709870015929], [2.545681689680564, 0.8705160460514623, 0.4301398439329594], [0.815033841726036, 7.434617747810507, 8.83397991393264], [1.5484695914703306, 1.2425842825146618, 3.926275765456429], [1.8122459399362776, 7.062549511347307, 5.337843992409166], [3.749028558985619, 3.8880734042430283, 2.4909500785938925], [-0.3883130275790189, 4.417060389618936, 6.773169679271707], [-2.7638602925400417, 3.165187629258947, 9.741278252447174], [6.124575823946644, 5.13994616460302, -0.4771584945815795], [-1.7793993689411725, 2.0132600152672557, 4.67298802521415], [5.140114900347777, 6.291873778594714, 4.591131732651438], [3.1953516551900463, 0.5787030528537009, 7.46831009164237], [0.1653638762165585, 7.7264307410082695, 1.7958096662232295], [4.827739016944502, 0.51030871387139, 3.1881446732308025], [-1.4670234855378985, 7.794825079990578, 6.0759750846347975], [2.093201099222677, 7.075607123142435, 1.5685263140133445], [1.2675144321839245, 1.229526670719534, 7.695593443852253]], "vdw gap": 0.9072983385145346, "bond length deviation": [["Ge", 0.5902667223502037], ["S", 0.4342958528844736]], "bond angle deviation": [["Ge", 22.503086824164665], ["S", 4.5248677473680345]], "mass density": 1.7303734591151876, "total energy": -656.89056333, "total energy_soc": -656.8637215, "cohesive energy": -13.758357076651787, "exfoliation energy": [], "born effective charge tensor": 3.958793571428572, "born effective charge q_xy": 1.9570939130435052, "born effective charge q_z": 1.2063785714285717, "dielectric constant XY": 7.798976630353498, "dielectric constant Z": 5.00886, "bader charge": [["Ge", 14.0, 12.758006], ["Ge", 14.0, 12.758006], ["Ge", 14.0, 12.748108], ["Ge", 14.0, 12.748108], ["Ge", 14.0, 12.726958], ["Ge", 14.0, 12.726958], ["Ge", 14.0, 12.749063], ["Ge", 14.0, 12.749063], ["S", 6.0, 6.644704], ["S", 6.0, 6.6447], ["S", 6.0, 6.635497], ["S", 6.0, 6.635483], ["S", 6.0, 6.644676], ["S", 6.0, 6.644628], ["S", 6.0, 6.656072], ["S", 6.0, 6.65609], ["S", 6.0, 6.650743], ["S", 6.0, 6.650743], ["S", 6.0, 6.648937], ["S", 6.0, 6.649], ["S", 6.0, 6.290387], ["S", 6.0, 6.290383], ["S", 6.0, 6.268513], ["S", 6.0, 6.268513], ["S", 6.0, 6.293156], ["S", 6.0, 6.293147], ["S", 6.0, 6.285182], ["S", 6.0, 6.285182]], "density of states at fermi": 0.0, "effective mass": -24.950994877126067, "vbm": 1.8867999999999996, "cbm": 2.2238, "band gap": 4.1106, "vbm soc": 2.2235, "cbm soc": 4.1103, "band gap soc": 1.8867999999999996, "layered?": false, "component layers": [], "KPath": ["-0.5000 -0.5000 0.5000 ! Z", "0.0000 0.0000 0.0000 ! G", "0.0000 0.0000 0.0000 ! G", "0.0000 0.5000 -0.5000 ! L", "0.0000 0.5000 -0.5000 ! L", "-0.5000 -0.5000 0.0000 ! M", "-0.5000 -0.5000 0.0000 ! M", "-0.5000 0.0000 0.5000 ! N", "-0.5000 0.0000 0.5000 ! N", "-0.5000 0.0000 0.0000 ! R", "-0.5000 0.0000 0.0000 ! R", "0.0000 0.5000 0.0000 ! X", "0.0000 0.5000 0.0000 ! X", "0.0000 0.0000 -0.5000 ! Y", "0.0000 0.0000 -0.5000 ! Y", "-0.5000 -0.5000 0.5000 ! Z"], "band locations": "/home/gtown/Documents/carbon/mpAll/allbulk/calcs/dir_Ge8S20-mp-1193697/scf/band", "band soc location": "/home/gtown/Documents/carbon/mpAll/allbulk/calcs/dir_Ge8S20-mp-1193697/scf_soc/band_soc", "dos location": "/home/gtown/Documents/carbon/mpAll/allbulk/calcs/dir_Ge8S20-mp-1193697/scf/dos"}