{"MP-ID": "mp-628781", "formula": "Ge8Te8", "spacegroup": "Pbcn (60)", "cell": {"array": [[4.016978073000188, 0.0, 0.0], [0.0, 10.214472740379327, 0.0], [0.0, 0.0, 14.086441132345959]]}, "symbols": ["Ge", "Ge", "Ge", "Ge", "Ge", "Ge", "Ge", "Ge", "Te", "Te", "Te", "Te", "Te", "Te", "Te", "Te"], "positions": [[2.0431590757762947, 1.0400037514265668, 3.4321504314849904], [1.9738189972238942, 9.174468988952759, 10.654290700860967], [0.034670039276199376, 9.174468988952759, 3.4321504314849904], [0.034670039276199376, 4.067232618763098, 3.6110701346879894], [3.9823080337239873, 1.0400037514265668, 10.654290700860967], [1.9738189972238942, 4.067232618763098, 10.475370997657972], [2.0431590757762947, 6.147240121616232, 3.6110701346879894], [3.9823080337239873, 6.147240121616232, 10.475370997657972], [1.9798773280031163, 7.0664760087601515, 8.804047734286602], [0.028611708496978513, 7.0664760087601515, 5.28239339805935], [2.037100744997072, 8.25523310180884, 1.76082716811363], [3.98836636450321, 8.25523310180884, 12.325613964232335], [2.037100744997072, 3.1479967316191746, 5.28239339805935], [3.98836636450321, 3.1479967316191746, 8.804047734286602], [0.028611708496978513, 1.9592396385704893, 1.76082716811363], [1.9798773280031163, 1.9592396385704893, 12.325613964232335]], "vdw gap": 3.521654336227252, "bond length deviation": [["Ge", 0.2871982611470515]], "bond angle deviation": [["Ge", 4.000842429110755]], "mass density": 2.7711437383734148, "total energy": -451.5268175, "total energy_soc": -451.82667085, "cohesive energy": -8.575825148750003, "exfoliation energy": NaN, "born effective charge tensor": 7.5727400000000005, "born effective charge q_xy": 5.047383186483864, "born effective charge q_z": 0.43705999999999984, "dielectric constant XY": 82.68129653553476, "dielectric constant Z": 6.771117, "bader charge": [["Ge", 14.0, 13.656284], ["Ge", 14.0, 13.6563], ["Ge", 14.0, 13.656452], ["Ge", 14.0, 13.6563], ["Ge", 14.0, 13.656182], ["Ge", 14.0, 13.656452], ["Ge", 14.0, 13.656182], ["Ge", 14.0, 13.656284], ["Te", 6.0, 6.343693], ["Te", 6.0, 6.343841], ["Te", 6.0, 6.343565], ["Te", 6.0, 6.343685], ["Te", 6.0, 6.343724], ["Te", 6.0, 6.343525], ["Te", 6.0, 6.344164], ["Te", 6.0, 6.34337]], "density of states at fermi": 0.0, "effective mass": -0.15735185433516918, "vbm": 0, "cbm": 0, "band gap": 0, "vbm soc": 0, "cbm soc": 0, "band gap soc": 0, "layered?": true, "component layers": ["Ge4Te4-Pca2_1", "Ge4Te4-Pca2_1"], "KPath": ["0.0000 0.0000 0.5000 ! Z", "0.0000 0.0000 0.0000 ! G", "0.0000 0.0000 0.0000 ! G", "0.5000 0.5000 0.5000 ! R", "0.5000 0.5000 0.5000 ! R", "0.5000 0.5000 0.0000 ! S", "0.5000 0.5000 0.0000 ! S", "0.0000 0.5000 0.5000 ! T", "0.0000 0.5000 0.5000 ! T", "0.5000 0.0000 0.5000 ! U", "0.5000 0.0000 0.5000 ! U", "0.5000 0.0000 0.0000 ! X", "0.5000 0.0000 0.0000 ! X", "0.0000 0.5000 0.0000 ! Y", "0.0000 0.5000 0.0000 ! Y", "0.0000 0.0000 0.5000 ! Z"], "band locations": "/home/gtown/Documents/carbon/mpAll/allbulk/calcs/dir_Ge8Te8-mp-628781/scf/band", "band soc location": "/home/gtown/Documents/carbon/mpAll/allbulk/calcs/dir_Ge8Te8-mp-628781/scf_soc/band_soc", "dos location": "/home/gtown/Documents/carbon/mpAll/allbulk/calcs/dir_Ge8Te8-mp-628781/scf/dos"}