{"MP-ID": "mp-1212511", "formula": "Ge9Sb6Te18", "spacegroup": "R3m (160)", "cell": {"array": [[4.206136746038267, 8e-16, -1e-16], [-2.1030683730191324, 3.6426212738603545, 1e-16], [-1.8e-15, -8e-16, 64.11363789330741]]}, "symbols": ["Ge", "Ge", "Ge", "Ge", "Ge", "Ge", "Ge", "Ge", "Ge", "Sb", "Sb", "Sb", "Sb", "Sb", "Sb", "Te", "Te", "Te", "Te", "Te", "Te", "Te", "Te", "Te", "Te", "Te", "Te", "Te", "Te", "Te", "Te", "Te", "Te"], "positions": [[-2.103067016669892e-08, 2.428414194715633, 7.9858900015453935], [2.1030683940498043, 1.2142070791447221, 4.352640171670806], [-2.1030670500585426e-08, 2.4284141947156326, 19.87848920226584], [-8.242050535647522e-16, -3.6631335713988985e-16, 29.357102418935867], [-2.1030670664694897e-08, 2.4284141947156326, 25.723853230197722], [-1.1580915598478618e-15, -5.14707359932383e-16, 41.249701619656314], [2.103068394049803, 1.2142070791447215, 50.728314836326334], [-1.3222010316545723e-15, -5.876449029575877e-16, 47.095065647588186], [2.1030683940498025, 1.2142070791447213, 62.620914037046795], [2.103068394049804, 1.214207079144722, 15.957964805430615], [-3.3427717317537986e-16, -1.4856763252239105e-16, 11.906514242758176], [-2.103067099051613e-08, 2.4284141947156326, 37.329177863957526], [2.1030683940498034, 1.2142070791447217, 33.27772666014818], [-1.6480222613830985e-15, -7.324543383924881e-16, 58.700390281347545], [-2.103067147677104e-08, 2.428414194715632, 54.64893971867509], [-2.1030670333122738e-08, 2.428414194715633, 13.913687951024757], [-4.96761498092695e-16, -2.2078288804119776e-16, 17.69399267113998], [-1.8470707325959772e-16, -8.20920325598212e-17, 6.579023561832473], [2.103068394049804, 1.214207079144722, 21.270982551096115], [2.103068394049804, 1.214207079144722, 10.149972134098343], [-2.1030670025649516e-08, 2.428414194715633, 2.9618953947525286], [-9.90628870082827e-16, -4.4027949781458976e-16, 35.2849003684148], [2.1030683940498034, 1.2142070791447217, 39.06520508852999], [2.1030683940498034, 1.2142070791447217, 27.950235979222953], [-2.1030671139679898e-08, 2.4284141947156326, 42.64219560962256], [-2.103067082745586e-08, 2.4284141947156326, 31.521185192625254], [-6.831556514503992e-16, -3.036247339779552e-16, 24.333107812143012], [2.1030683940498025, 1.2142070791447215, 56.65611278580528], [-2.1030671639255364e-08, 2.428414194715632, 60.436418147056905], [-2.103067132720094e-08, 2.4284141947156326, 49.32144903774941], [-1.797186031470713e-15, -7.987493473203168e-16, 64.01340802701304], [-1.4849619960181136e-15, -6.599831093413837e-16, 52.89239761001574], [2.103068394049803, 1.2142070791447215, 45.704320229533025]], "vdw gap": 3.062125261046898, "bond length deviation": [["Ge", 0.2374419536308812], ["Sb", 0.08739447051966373]], "bond angle deviation": [["Ge", 6.231049211787993], ["Sb", 4.214135582033797]], "mass density": 3.7470821341489597, "total energy": -898.46253498, "total energy_soc": -897.54950518, "cohesive energy": -4.905054690909079, "exfoliation energy": -1.28619935923442, "born effective charge tensor": 9.50736272727273, "born effective charge q_xy": 3.9780463636363645, "born effective charge q_z": 1.55127, "dielectric constant XY": 52.803352, "dielectric constant Z": 61.233021, "bader charge": [["Ge", 14.0, 13.677388], ["Ge", 14.0, 13.672783], ["Ge", 14.0, 13.705953], ["Ge", 14.0, 13.686993], ["Ge", 14.0, 13.655092], ["Ge", 14.0, 13.706511], ["Ge", 14.0, 13.698302], ["Ge", 14.0, 13.678858], ["Ge", 14.0, 13.686679], ["Sb", 5.0, 4.532877], ["Sb", 5.0, 4.508608], ["Sb", 5.0, 4.496817], ["Sb", 5.0, 4.493706], ["Sb", 5.0, 4.521284], ["Sb", 5.0, 4.522445], ["Te", 6.0, 6.412106], ["Te", 6.0, 6.277058], ["Te", 6.0, 6.305334], ["Te", 6.0, 6.273592], ["Te", 6.0, 6.323063], ["Te", 6.0, 6.311687], ["Te", 6.0, 6.459006], ["Te", 6.0, 6.278152], ["Te", 6.0, 6.31937], ["Te", 6.0, 6.276078], ["Te", 6.0, 6.313671], ["Te", 6.0, 6.314238], ["Te", 6.0, 6.411556], ["Te", 6.0, 6.296935], ["Te", 6.0, 6.296624], ["Te", 6.0, 6.275467], ["Te", 6.0, 6.300639], ["Te", 6.0, 6.311129]], "density of states at fermi": 0.0, "effective mass": -0.3349997042152579, "vbm": 0, "cbm": 0, "band gap": 0, "vbm soc": 0, "cbm soc": 0, "band gap soc": 0, "layered?": true, "component layers": ["GeTe-P_6m2", "GeTe-P_6m2", "GeTe-P_6m2", "GeTe-P_6m2", "GeTe-P_6m2", "GeTe-P_6m2", "GeTe-P_6m2", "GeTe-P_6m2", "Sb2Te3-P3m1", "Sb2Te3-P3m1", "Sb2Te3-P3m1", "GeTe-P_6m2"], "KPath": ["0.5000 0.0000 0.0000 ! M", "0.0000 0.0000 0.0000 ! G", "0.0000 0.0000 0.0000 ! G", "0.0000 0.0000 0.5000 ! A", "0.0000 0.0000 0.5000 ! A", "0.3333 0.3333 0.5000 ! H", "0.3333 0.3333 0.5000 ! H", "0.3333 0.3333 0.0000 ! K", "0.3333 0.3333 0.0000 ! K", "0.5000 0.0000 0.5000 ! L", "0.5000 0.0000 0.5000 ! L", "0.5000 0.0000 0.0000 ! M"], "band locations": "/home/gtown/Documents/carbon/mpAll/allbulk/calcs/dir_Ge9Sb6Te18-mp-1212511/scf/band", "band soc location": "/home/gtown/Documents/carbon/mpAll/allbulk/calcs/dir_Ge9Sb6Te18-mp-1212511/scf_soc/band_soc", "dos location": "/home/gtown/Documents/carbon/mpAll/allbulk/calcs/dir_Ge9Sb6Te18-mp-1212511/scf/dos"}