{"MP-ID": "mp-29641", "formula": "GeSb4Te7", "spacegroup": "P-3m1 (164)", "cell": {"array": [[4.272052412764857, -4e-16, -0.0], [-2.136026206382428, 3.699705915752972, 0.0], [-1e-16, 0.0, 24.267759694269213]]}, "symbols": ["Ge", "Sb", "Sb", "Sb", "Sb", "Te", "Te", "Te", "Te", "Te", "Te", "Te"], "positions": [[-5e-17, 0.0, 12.133879847134606], [2.136026227742678, 1.233235292918645, 22.285215855212492], [-2.1360248040593138e-08, 2.4664706228343265, 8.454047199274518], [-2.1360248013926056e-08, 2.4664706228343265, 1.982543839056724], [2.136026227742678, 1.233235292918645, 15.813712494994878], [-2.136024809054931e-08, 2.4664706228343265, 20.577291168638403], [2.136026227742678, 1.233235292918645, 3.690468525630807], [-7.214113682859645e-17, 0.0, 17.507037726277733], [2.136026227742678, 1.233235292918645, 10.465447008555886], [-2.13602480626317e-08, 2.4664706228343265, 13.802312685713327], [0.0, 0.0, 0.0], [-2.7858863171403547e-17, 0.0, 6.76072196799148]], "vdw gap": 3.070253442360673, "bond length deviation": [["Ge", 1.582469456182305e-08], ["Sb", 0.09100888300449755]], "bond angle deviation": [["Ge", 1.7419383287787313], ["Sb", 3.1635554003931867]], "mass density": 3.7876981203328928, "total energy": -321.5210273, "total energy_soc": -322.27849546, "cohesive energy": -2.2419347191666694, "exfoliation energy": -0.03131901437548681, "born effective charge tensor": 15.382475833333336, "born effective charge q_xy": 6.624179166666668, "born effective charge q_z": 2.1341175, "dielectric constant XY": 43.159245, "dielectric constant Z": 33.942899, "bader charge": [["Ge", 14.0, 13.587338], ["Sb", 5.0, 4.451756], ["Sb", 5.0, 4.47139], ["Sb", 5.0, 4.451729], ["Sb", 5.0, 4.471396], ["Te", 6.0, 6.317272], ["Te", 6.0, 6.317299], ["Te", 6.0, 6.308197], ["Te", 6.0, 6.424863], ["Te", 6.0, 6.424881], ["Te", 6.0, 6.465676], ["Te", 6.0, 6.308203]], "density of states at fermi": 0.0, "effective mass": 0.1850114642697511, "vbm": 0, "cbm": 0, "band gap": 0, "vbm soc": 0, "cbm soc": 0, "band gap soc": 0, "layered?": true, "component layers": ["Sb2Te3-P_3m1", "GeSb2Te4-P_3m1"], "KPath": ["0.5000 0.0000 0.0000 ! M", "0.0000 0.0000 0.0000 ! G", "0.0000 0.0000 0.0000 ! G", "0.0000 0.0000 0.5000 ! A", "0.0000 0.0000 0.5000 ! A", "0.3333 0.3333 0.5000 ! H", "0.3333 0.3333 0.5000 ! H", "0.3333 0.3333 0.0000 ! K", "0.3333 0.3333 0.0000 ! K", "0.5000 0.0000 0.5000 ! L", "0.5000 0.0000 0.5000 ! L", "0.5000 0.0000 0.0000 ! M"], "band locations": "/home/gtown/Documents/carbon/mpAll/allbulk/calcs/dir_GeSb4Te7-mp-29641/scf/band", "band soc location": "/home/gtown/Documents/carbon/mpAll/allbulk/calcs/dir_GeSb4Te7-mp-29641/scf_soc/band_soc", "dos location": "/home/gtown/Documents/carbon/mpAll/allbulk/calcs/dir_GeSb4Te7-mp-29641/scf/dos"}