{"MP-ID": "mp-1224378", "formula": "GeSb4Te4", "spacegroup": "P-3m1 (164)", "cell": {"array": [[4.293756694191541, -5e-16, 0.0], [-2.1468783470957695, 3.7185023748393666, -0.0], [0.0, 0.0, 17.291466211895504]]}, "symbols": ["Ge", "Sb", "Sb", "Sb", "Sb", "Te", "Te", "Te", "Te"], "positions": [[0.0, 0.0, 0.0], [-2.1468769468824105e-08, 2.4790015956212446, 9.411914332437147], [2.1468783685645407, 1.2395007792181219, 7.8795518794583606], [2.1468783685645407, 1.2395007792181219, 13.63951284906832], [-2.1468769468824105e-08, 2.4790015956212446, 3.6519533628271836], [-2.1468769468824105e-08, 2.4790015956212446, 15.635003626610608], [2.1468783685645407, 1.2395007792181219, 1.6564625852848962], [0.0, 0.0, 11.947783103116484], [0.0, 0.0, 5.343683108779018]], "vdw gap": 2.5358687706793424, "bond length deviation": [["Ge", 1.596595005146727e-08], ["Sb", 0.2332165104212433]], "bond angle deviation": [["Ge", 2.214387205501985], ["Sb", 6.8339136798173445]], "mass density": 3.8757032883221827, "total energy": -234.56532989, "total energy_soc": -231.91671106, "cohesive energy": -1.7999102388888906, "exfoliation energy": -0.13565880341855702, "born effective charge tensor": 16.935535555555553, "born effective charge q_xy": 6.67984111111111, "born effective charge q_z": 3.5758533333333338, "dielectric constant XY": 102.234717, "dielectric constant Z": 64.815873, "bader charge": [["Ge", 14.0, 13.608422], ["Sb", 5.0, 4.974656], ["Sb", 5.0, 4.971205], ["Sb", 5.0, 4.49373], ["Sb", 5.0, 4.49373], ["Te", 6.0, 6.421941], ["Te", 6.0, 6.421925], ["Te", 6.0, 6.307196], ["Te", 6.0, 6.307196]], "density of states at fermi": 0.02918, "effective mass": -0.20294482969559827, "vbm": 0, "cbm": 0, "band gap": 0, "vbm soc": 0, "cbm soc": 0, "band gap soc": 0, "layered?": true, "component layers": ["Sb2-P6_3_mmc", "GeSb2Te4-P_3m1"], "KPath": ["0.5000 0.0000 0.0000 ! M", "0.0000 0.0000 0.0000 ! G", "0.0000 0.0000 0.0000 ! G", "0.0000 0.0000 0.5000 ! A", "0.0000 0.0000 0.5000 ! A", "0.3333 0.3333 0.5000 ! H", "0.3333 0.3333 0.5000 ! H", "0.3333 0.3333 0.0000 ! K", "0.3333 0.3333 0.0000 ! K", "0.5000 0.0000 0.5000 ! L", "0.5000 0.0000 0.5000 ! L", "0.5000 0.0000 0.0000 ! M"], "band locations": "/home/gtown/Documents/carbon/mpAll/allbulk/calcs/dir_GeSb4Te4-mp-1224378/scf/band", "band soc location": "/home/gtown/Documents/carbon/mpAll/allbulk/calcs/dir_GeSb4Te4-mp-1224378/scf_soc/band_soc", "dos location": "/home/gtown/Documents/carbon/mpAll/allbulk/calcs/dir_GeSb4Te4-mp-1224378/scf/dos"}