{"MP-ID": "mp-31507", "formula": "Pb3Sb6Te12", "spacegroup": "R-3m (166)", "cell": {"array": [[4.3625999095746435, -1e-15, 1e-16], [-2.1812999547873213, 3.7781223482393367, 0.0], [-9e-16, -2e-16, 42.52364816050786]]}, "symbols": ["Sb", "Sb", "Sb", "Sb", "Sb", "Sb", "Te", "Te", "Te", "Te", "Te", "Te", "Te", "Te", "Te", "Te", "Te", "Te", "Pb", "Pb", "Pb"], "positions": [[-2.1812985646619248e-08, 2.5187482447532905, 3.943508982240273], [-2.181298577969293e-08, 2.5187482447532905, 10.23104068808649], [-3.834631577951376e-16, -8.521403506558614e-17, 18.11805822733082], [-5.165368422048623e-16, -1.1478596493441383e-16, 24.405589933177033], [2.181299976600307, 1.2593741034860448, 32.29260747242137], [2.181299976600307, 1.2593741034860448, 38.580139178267586], [-2.579851997281093e-16, -5.733004438402428e-17, 12.18941318206274], [2.181299976600308, 1.259374103486045, 8.588716071697277], [-1.18222449707944e-16, -2.627165549065422e-17, 5.585833173393273], [2.181299976600308, 1.259374103486045, 1.9851360630278045], [2.1812999766003074, 1.2593741034860448, 26.363962427153282], [-2.181298604493364e-08, 2.5187482447532905, 22.763265742024338], [2.1812999766003074, 1.259374103486045, 19.760382418483523], [-2.181298590517089e-08, 2.5187482447532905, 16.159685733354575], [-2.1812986421141288e-08, 2.5187482447532905, 40.538512097480044], [-7.817775502920559e-16, -1.7372834450934574e-16, 36.937814987114585], [-2.181298628137854e-08, 2.5187482447532905, 33.93493208881059], [-6.420148002718909e-16, -1.4266995561597574e-16, 30.334234978445128], [0.0, 0.0, 0.0], [2.1812999766003074, 1.259374103486045, 14.17454924509055], [-2.181298616315609e-08, 2.5187482447532905, 28.34909891541731]], "vdw gap": 3.0028833235408143, "bond length deviation": [["Sb", 0.09311484449747102], ["Pb", 1.2929359717117772e-07]], "bond angle deviation": [["Sb", 2.4223751851069575], ["Pb", 4.347249762163506]], "mass density": 4.113750158834369, "total energy": -549.75372408, "total energy_soc": -551.32939993, "cohesive energy": 3.7307744928571407, "exfoliation energy": 0.00010762668678848438, "born effective charge tensor": 15.025587142857143, "born effective charge q_xy": 6.228075714285715, "born effective charge q_z": 2.569435714285714, "dielectric constant XY": 34.927048, "dielectric constant Z": 30.650091, "bader charge": [["Sb", 5.0, 4.438649], ["Sb", 5.0, 4.441846], ["Sb", 5.0, 4.441661], ["Sb", 5.0, 4.441676], ["Sb", 5.0, 4.441822], ["Sb", 5.0, 4.438652], ["Te", 6.0, 6.538859], ["Te", 6.0, 6.319419], ["Te", 6.0, 6.321273], ["Te", 6.0, 6.537977], ["Te", 6.0, 6.537327], ["Te", 6.0, 6.318369], ["Te", 6.0, 6.317851], ["Te", 6.0, 6.537318], ["Te", 6.0, 6.538014], ["Te", 6.0, 6.32127], ["Te", 6.0, 6.319443], ["Te", 6.0, 6.538859], ["Pb", 4.0, 3.40347], ["Pb", 4.0, 3.403122], ["Pb", 4.0, 3.403122]], "density of states at fermi": 0.005515, "effective mass": "UNKNOWN", "vbm": 0, "cbm": 0, "band gap": 0, "vbm soc": 0, "cbm soc": 0, "band gap soc": 0, "layered?": true, "component layers": ["PbSb2Te4-P_3m1", "PbSb2Te4-P_3m1", "PbSb2Te4-P_3m1"], "KPath": ["0.5000 0.0000 0.0000 ! M", "0.0000 0.0000 0.0000 ! G", "0.0000 0.0000 0.0000 ! G", "0.0000 0.0000 0.5000 ! A", "0.0000 0.0000 0.5000 ! A", "0.3333 0.3333 0.5000 ! H", "0.3333 0.3333 0.5000 ! H", "0.3333 0.3333 0.0000 ! K", "0.3333 0.3333 0.0000 ! K", "0.5000 0.0000 0.5000 ! L", "0.5000 0.0000 0.5000 ! L", "0.5000 0.0000 0.0000 ! M"], "band locations": "/home/gtown/Documents/carbon/mpAll/allbulk/calcs/dir_Pb3Sb6Te12-mp-31507/scf/band", "band soc location": "/home/gtown/Documents/carbon/mpAll/allbulk/calcs/dir_Pb3Sb6Te12-mp-31507/scf_soc/band_soc", "dos location": "/home/gtown/Documents/carbon/mpAll/allbulk/calcs/dir_Pb3Sb6Te12-mp-31507/scf/dos"}