{"MP-ID": "mp-1209139", "formula": "PbSb4Te7", "spacegroup": "P-3m1 (164)", "cell": {"array": [[4.331842149185051, -4e-16, -0.0], [-2.1659210745925246, 3.7514853463784346, -0.0], [-5e-16, -0.0, 24.514577479230816]]}, "symbols": ["Sb", "Sb", "Sb", "Sb", "Te", "Te", "Te", "Te", "Te", "Te", "Te", "Pb"], "positions": [[-2.165919663945515e-08, 2.5009902434238995, 1.9520107050817759], [2.165921096251722, 1.2504951029545346, 22.56256677414904], [-2.1659196768637036e-08, 2.5009902434238995, 8.28568936054576], [2.165921096251722, 1.2504951029545346, 16.228888118685056], [-2.1659196890410092e-08, 2.5009902434238995, 14.256119496027717], [2.1659210962517226, 1.2504951029545346, 10.258457983203105], [-2.1659197025521624e-08, 2.5009902434238995, 20.88052366014904], [2.1659210962517226, 1.2504951029545346, 3.6340538190817764], [-1.351968624398906e-16, 0.0, 6.628587918463217], [-3.6480313756010943e-16, 0.0, 17.885989560767598], [0.0, 0.0, 0.0], [-2.5e-16, 0.0, 12.257288739615408]], "vdw gap": 2.9945340993814433, "bond length deviation": [["Sb", 0.08806877178586295], ["Pb", 1.5133227374706875e-08]], "bond angle deviation": [["Sb", 2.434035656832232], ["Pb", 5.072772539127992]], "mass density": 3.984612440040611, "total energy": -314.86130952, "total energy_soc": -316.26639441, "cohesive energy": 1.8474714733333286, "exfoliation energy": -0.0541373700080243, "born effective charge tensor": 14.822497499999999, "born effective charge q_xy": 6.202573333333333, "born effective charge q_z": 2.4173508333333333, "dielectric constant XY": 39.134721, "dielectric constant Z": 32.465256, "bader charge": [["Sb", 5.0, 4.46323], ["Sb", 5.0, 4.463215], ["Sb", 5.0, 4.441121], ["Sb", 5.0, 4.441117], ["Te", 6.0, 6.541757], ["Te", 6.0, 6.541713], ["Te", 6.0, 6.313419], ["Te", 6.0, 6.313405], ["Te", 6.0, 6.315559], ["Te", 6.0, 6.315554], ["Te", 6.0, 6.449812], ["Pb", 4.0, 3.400097]], "density of states at fermi": 0.0, "effective mass": "UNKNOWN", "vbm": 0, "cbm": 0, "band gap": 0, "vbm soc": 0, "cbm soc": 0, "band gap soc": 0, "layered?": true, "component layers": ["Sb2Te3-P_3m1", "PbSb2Te4-P_3m1"], "KPath": ["0.5000 0.0000 0.0000 ! M", "0.0000 0.0000 0.0000 ! G", "0.0000 0.0000 0.0000 ! G", "0.0000 0.0000 0.5000 ! A", "0.0000 0.0000 0.5000 ! A", "0.3333 0.3333 0.5000 ! H", "0.3333 0.3333 0.5000 ! H", "0.3333 0.3333 0.0000 ! K", "0.3333 0.3333 0.0000 ! K", "0.5000 0.0000 0.5000 ! L", "0.5000 0.0000 0.5000 ! L", "0.5000 0.0000 0.0000 ! M"], "band locations": "/home/gtown/Documents/carbon/mpAll/allbulk/calcs/dir_PbSb4Te7-mp-1209139/scf/band", "band soc location": "/home/gtown/Documents/carbon/mpAll/allbulk/calcs/dir_PbSb4Te7-mp-1209139/scf_soc/band_soc", "dos location": "/home/gtown/Documents/carbon/mpAll/allbulk/calcs/dir_PbSb4Te7-mp-1209139/scf/dos"}