{"MP-ID": "mp-1189633", "formula": "S12Sb8", "spacegroup": "Pmn2_1 (31)", "cell": {"array": [[3.8384582978674646, 0.0, 0.0], [0.0, 11.180215898185047, 0.0], [0.0, 0.0, 11.594308701538168]]}, "symbols": ["Sb", "Sb", "Sb", "Sb", "Sb", "Sb", "Sb", "Sb", "S", "S", "S", "S", "S", "S", "S", "S", "S", "S", "S", "S"], "positions": [[1.9192291489337323, 1.928685586100519, 8.330399669697423], [0.0, 7.518793535193044, 3.2639090318407424], [0.0, 5.2014485827390295, 6.9969724099537975], [1.9192291489337323, 10.791556531831553, 4.597336291584372], [0.0, 9.240146491208511, 9.06217192618156], [1.9192291489337323, 3.650038542115988, 2.5321367753566064], [1.9192291489337323, 5.960236954605456, 10.385696430452763], [0.0, 0.3701290055129346, 1.2086122710854004], [0.0, 0.6519323410269521, 7.242135583501467], [1.9192291489337323, 6.242040290119471, 4.352173118036699], [1.9192291489337323, 3.456271752314567, 6.324724410887464], [0.0, 9.046379701407087, 5.269584290650703], [0.0, 4.198938217292689, 9.258386521850603], [1.9192291489337323, 9.789046166385214, 2.3359221796875667], [1.9192291489337323, 10.503777955243105, 10.161616700932642], [0.0, 4.913670006150586, 1.4326920006055257], [0.0, 7.699509520367115, 11.060602537799284], [1.9192291489337323, 2.109401571274593, 0.5337061637388846], [1.9192291489337323, 6.959957355579602, 8.123271663937253], [0.0, 1.3698494064870805, 3.4710370376009125]], "vdw gap": 1.0551401202367616, "bond length deviation": [["Sb", 0.5870918793033609], ["S", 0.33178377469671355]], "bond angle deviation": [["Sb", 25.01890244474535], ["S", 8.758557623513239]], "mass density": 4.893809833908301, "total energy": -451.96784185, "total energy_soc": -452.23760639, "cohesive energy": -7.495443464187494, "exfoliation energy": [], "born effective charge tensor": 10.453217, "born effective charge q_xy": 6.241425455503575, "born effective charge q_z": 1.6612969999999998, "dielectric constant XY": 20.011071242022627, "dielectric constant Z": 8.961893, "bader charge": [["Sb", 5.0, 3.804162], ["Sb", 5.0, 3.804162], ["Sb", 5.0, 3.801567], ["Sb", 5.0, 3.801567], ["Sb", 5.0, 3.806435], ["Sb", 5.0, 3.806435], ["Sb", 5.0, 3.80253], ["Sb", 5.0, 3.80253], ["S", 5.0, 6.803254], ["S", 5.0, 6.803254], ["S", 5.0, 6.771485], ["S", 5.0, 6.771485], ["S", 5.0, 6.818994], ["S", 5.0, 6.818994], ["S", 5.0, 6.801609], ["S", 5.0, 6.801609], ["S", 5.0, 6.771578], ["S", 5.0, 6.771578], ["S", 5.0, 6.818385], ["S", 5.0, 6.818385]], "density of states at fermi": 0.0, "effective mass": -2.661113443427954, "vbm": 1.3117999999999999, "cbm": 4.9729, "band gap": 6.2847, "vbm soc": 4.9996, "cbm soc": 6.2952, "band gap soc": 1.2956000000000003, "layered?": false, "component layers": [], "KPath": ["0.0000 0.0000 0.5000 ! Z", "0.0000 0.0000 0.0000 ! G", "0.0000 0.0000 0.0000 ! G", "0.5000 0.5000 0.5000 ! R", "0.5000 0.5000 0.5000 ! R", "0.5000 0.5000 0.0000 ! S", "0.5000 0.5000 0.0000 ! S", "0.0000 0.5000 0.5000 ! T", "0.0000 0.5000 0.5000 ! T", "0.5000 0.0000 0.5000 ! U", "0.5000 0.0000 0.5000 ! U", "0.5000 0.0000 0.0000 ! X", "0.5000 0.0000 0.0000 ! X", "0.0000 0.5000 0.0000 ! Y", "0.0000 0.5000 0.0000 ! Y", "0.0000 0.0000 0.5000 ! Z"], "band locations": "/home/gtown/Documents/carbon/mpAll/allbulk/calcs/dir_S12Sb8-mp-1189633/scf/band", "band soc location": "/home/gtown/Documents/carbon/mpAll/allbulk/calcs/dir_S12Sb8-mp-1189633/scf_soc/band_soc", "dos location": "/home/gtown/Documents/carbon/mpAll/allbulk/calcs/dir_S12Sb8-mp-1189633/scf/dos"}