{"MP-ID": "mp-2809", "formula": "S12Sb8", "spacegroup": "Pnma (62)", "cell": {"array": [[3.8377768749419703, -0.0, 0.0], [0.0, 11.17483128431078, 0.0], [0.0, 0.0, 11.599066358692035]]}, "symbols": ["Sb", "Sb", "Sb", "Sb", "Sb", "Sb", "Sb", "Sb", "S", "S", "S", "S", "S", "S", "S", "S", "S", "S", "S", "S"], "positions": [[2.878332656206478, 5.206683420431477, 9.904566771697837], [0.9594442187354926, 5.968147863879306, 1.6944995869941961], [0.9594442187354926, 10.794099062586865, 7.494032766340216], [2.878332656206478, 0.38073222172391363, 4.10503359235182], [0.9594442187354926, 1.9321694701467127, 11.233336119059548], [2.878332656206478, 9.24266181416407, 0.365730239632487], [2.878332656206478, 7.519585112302101, 6.165263418978506], [0.9594442187354926, 3.6552461720086775, 5.43380293971353], [2.878332656206478, 0.6626781713801511, 10.137771022492203], [0.9594442187354926, 10.512153112930632, 1.46129533619983], [0.9594442187354926, 6.250093813535539, 7.260828515545849], [2.878332656206478, 4.924737470775239, 4.338237843146186], [2.878332656206478, 4.204601904796081, 0.5657905820985879], [0.9594442187354926, 6.9702293795147, 11.033275776593449], [0.9594442187354926, 9.79201754695147, 5.23374259724743], [2.878332656206478, 1.3828137373593075, 6.365323761444604], [0.9594442187354926, 2.1218999882475, 3.4309114286346754], [2.878332656206478, 9.05293129606328, 8.16815493005736], [2.878332656206478, 7.709315630402891, 2.3686217507113434], [0.9594442187354926, 3.4655156539078895, 9.230444607980692]], "vdw gap": 1.062289677923332, "bond length deviation": [["Sb", 0.5867613271804641], ["S", 0.3314580043229271]], "bond angle deviation": [["Sb", 25.013708905485988], ["S", 8.756094676274756]], "mass density": 4.895028626353339, "total energy": -451.94349211, "total energy_soc": -452.22049509, "cohesive energy": -7.494225977187495, "exfoliation energy": [], "born effective charge tensor": 10.459454, "born effective charge q_xy": 6.244246281186865, "born effective charge q_z": 1.6627880000000004, "dielectric constant XY": 20.03226057345084, "dielectric constant Z": 8.958411, "bader charge": [["Sb", 5.0, 3.801034], ["Sb", 5.0, 3.801034], ["Sb", 5.0, 3.801034], ["Sb", 5.0, 3.801034], ["Sb", 5.0, 3.806236], ["Sb", 5.0, 3.806236], ["Sb", 5.0, 3.806236], ["Sb", 5.0, 3.806236], ["S", 5.0, 6.802152], ["S", 5.0, 6.802152], ["S", 5.0, 6.802152], ["S", 5.0, 6.802152], ["S", 5.0, 6.8198], ["S", 5.0, 6.8198], ["S", 5.0, 6.8198], ["S", 5.0, 6.8198], ["S", 5.0, 6.770777], ["S", 5.0, 6.770777], ["S", 5.0, 6.770777], ["S", 5.0, 6.770777]], "density of states at fermi": 0.0, "effective mass": -2.7779022360264305, "vbm": 1.3125999999999998, "cbm": 4.9759, "band gap": 6.2885, "vbm soc": 5.0026, "cbm soc": 6.2988, "band gap soc": 1.2961999999999998, "layered?": false, "component layers": [], "KPath": ["0.0000 0.0000 0.5000 ! Z", "0.0000 0.0000 0.0000 ! G", "0.0000 0.0000 0.0000 ! G", "0.5000 0.5000 0.5000 ! R", "0.5000 0.5000 0.5000 ! R", "0.5000 0.5000 0.0000 ! S", "0.5000 0.5000 0.0000 ! S", "0.0000 0.5000 0.5000 ! T", "0.0000 0.5000 0.5000 ! T", "0.5000 0.0000 0.5000 ! U", "0.5000 0.0000 0.5000 ! U", "0.5000 0.0000 0.0000 ! X", "0.5000 0.0000 0.0000 ! X", "0.0000 0.5000 0.0000 ! Y", "0.0000 0.5000 0.0000 ! Y", "0.0000 0.0000 0.5000 ! Z"], "band locations": "/home/gtown/Documents/carbon/mpAll/allbulk/calcs/dir_S12Sb8-mp-2809/scf/band", "band soc location": "/home/gtown/Documents/carbon/mpAll/allbulk/calcs/dir_S12Sb8-mp-2809/scf_soc/band_soc", "dos location": "/home/gtown/Documents/carbon/mpAll/allbulk/calcs/dir_S12Sb8-mp-2809/scf/dos"}