{"MP-ID": "mp-753921", "formula": "S18Sb11", "spacegroup": "P1 (1)", "cell": {"array": [[6.605594512679328, 0.0506524616108402, 0.0786336078487206], [2.1694796346520446, 7.395133044528961, 0.0289007382164154], [2.4626776645758337, 3.2649628268109514, 14.669668890084987]]}, "symbols": ["Sb", "Sb", "Sb", "Sb", "Sb", "Sb", "Sb", "Sb", "Sb", "Sb", "Sb", "S", "S", "S", "S", "S", "S", "S", "S", "S", "S", "S", "S", "S", "S", "S", "S", "S", "S"], "positions": [[4.599785427655344, 4.676359633820648, 13.550945663745557], [3.2746053075120165, 7.023982797748842, 3.013786893919414], [6.247222416688097, 6.296546545132853, 9.07285279421071], [6.237826541497468, 8.153172837111951, 5.7347699329560475], [5.672374340900136, 8.356700220642088, 13.564432631912641], [5.469205429626725, 2.392182859020096, 1.0226232866154812], [2.184199380698173, 3.349300857834491, 2.9309305172399265], [5.131661416747348, 2.4095788608511053, 8.94776350484404], [5.203430269400189, 4.45382976649058, 5.78239779038882], [8.156145885016175, 3.6315597127912476, 11.714332099296428], [6.542602739631063, 6.084788273461269, 0.9946739943292044], [8.643497379016203, 7.4456325800423695, 0.15245676493739255], [3.6383942274666654, 4.924099911774976, 11.301590134631537], [6.662226357024171, 6.052659503533475, 12.95057884745979], [3.8167335616783262, 6.885221644505775, 5.373438961965475], [7.212452603485736, 5.9061966621309505, 6.826416129833779], [7.506148818316627, 3.832625613206437, 0.07832773412477533], [4.7579672115633596, 8.731597277730781, 11.325374145276871], [5.1975438170343295, 8.517225280814968, 7.973381922622935], [8.247988008103492, 7.6436592960847864, 9.835876206767024], [3.350621649708131, 1.0117652903897252, 1.8853260300234373], [7.848692028517827, 9.72499658760625, 13.135982957109714], [2.7326462927794273, 3.1725812909607285, 5.275974542280652], [6.164465368386028, 2.163365686543627, 6.740396380935034], [6.531604005051547, 2.0305632325153207, 3.348546427107525], [4.050793019199253, 4.7334072185835145, 7.9185045032075365], [7.477781370776938, 3.800619198038816, 9.371631525379234], [4.436300100146285, 4.675701049615141, 1.9109529046335598], [7.65738701664367, 5.7501955392959525, 3.405770773170581]], "vdw gap": 1.8702037691100712, "bond length deviation": [["Sb", 0.6210455543925106], ["S", 0.3682726019412854]], "bond angle deviation": [["Sb", 23.31792423406238], ["S", 15.688815872611842]], "mass density": 4.948524496802824, "total energy": -648.47087798, "total energy_soc": -648.77934013, "cohesive energy": -7.62374947795257, "exfoliation energy": [], "born effective charge tensor": 9.960023103448275, "born effective charge q_xy": 5.2112764781370435, "born effective charge q_z": 2.768893793103448, "dielectric constant XY": 127.1600572022344, "dielectric constant Z": 61.716631, "bader charge": [["Sb", 5.0, 3.821923], ["Sb", 5.0, 3.807889], ["Sb", 5.0, 3.7884], ["Sb", 5.0, 3.814138], ["Sb", 5.0, 3.813833], ["Sb", 5.0, 3.791861], ["Sb", 5.0, 3.80549], ["Sb", 5.0, 3.723915], ["Sb", 5.0, 3.822366], ["Sb", 5.0, 3.821349], ["Sb", 5.0, 3.756918], ["S", 5.0, 6.849639], ["S", 5.0, 6.70886], ["S", 5.0, 6.741599], ["S", 5.0, 6.717157], ["S", 5.0, 6.718529], ["S", 5.0, 6.812533], ["S", 5.0, 6.714875], ["S", 5.0, 6.670784], ["S", 5.0, 6.663719], ["S", 5.0, 6.825772], ["S", 5.0, 6.732059], ["S", 5.0, 6.728984], ["S", 5.0, 6.718406], ["S", 5.0, 6.7376], ["S", 5.0, 6.643377], ["S", 5.0, 6.67869], ["S", 5.0, 6.82922], ["S", 5.0, 6.740113]], "density of states at fermi": 8.974, "effective mass": -1.3186157683323718, "vbm": 0, "cbm": 0, "band gap": 0, "vbm soc": 0, "cbm soc": 0, "band gap soc": 0, "layered?": false, "component layers": [], "KPath": ["0.0000 0.5000 0.0000 ! Z", "0.0000 0.0000 0.0000 ! G", "0.0000 0.0000 0.0000 ! G", "0.5000 0.0000 0.5000 ! L", "0.5000 0.0000 0.5000 ! L", "0.5000 0.5000 0.0000 ! M", "0.5000 0.5000 0.0000 ! M", "0.0000 0.5000 0.5000 ! N", "0.0000 0.5000 0.5000 ! N", "0.5000 0.5000 0.5000 ! R", "0.5000 0.5000 0.5000 ! R", "0.0000 0.0000 0.5000 ! X", "0.0000 0.0000 0.5000 ! X", "0.5000 0.0000 0.0000 ! Y", "0.5000 0.0000 0.0000 ! Y", "0.0000 0.5000 0.0000 ! Z"], "band locations": "/home/gtown/Documents/carbon/mpAll/allbulk/calcs/dir_S18Sb11-mp-753921/scf/band", "band soc location": "/home/gtown/Documents/carbon/mpAll/allbulk/calcs/dir_S18Sb11-mp-753921/scf_soc/band_soc", "dos location": "/home/gtown/Documents/carbon/mpAll/allbulk/calcs/dir_S18Sb11-mp-753921/scf/dos"}