{"MP-ID": "mp-1359089", "formula": "S20Sb8", "spacegroup": "P2_1/c (14)", "cell": {"array": [[6.945125555696023, 0.0, -0.3283196750298467], [0.0, 9.22023054822486, 0.0], [-2.944965028930512, 0.0, 12.295589214104558]]}, "symbols": ["Sb", "Sb", "Sb", "Sb", "Sb", "Sb", "Sb", "Sb", "S", "S", "S", "S", "S", "S", "S", "S", "S", "S", "S", "S", "S", "S", "S", "S", "S", "S", "S", "S"], "positions": [[2.6486242088775507, 1.002116854753796, 7.204086925244266], [4.824099095735971, 5.61223212886623, 4.59902277631553], [1.3515363178879516, 8.218113693471059, 4.763182613830454], [-0.8239385689704557, 3.607998419358637, 7.36824676275919], [0.38747484081392525, 1.7277353756780636, 10.78654399850135], [0.140122908103577, 6.337850649790499, 1.3448853780882732], [3.612685685951587, 7.492495172546791, 1.1807255405733499], [3.8600376186619383, 2.8823798984343685, 10.622384160986426], [1.6073621340512882, 3.0494419087720055, 9.18734480376172], [-1.0797643851337873, 7.659557182884434, 2.9440845728279137], [2.3927983927142287, 6.170788639452856, 2.77992473531299], [-1.8652006437967281, 1.5606733653404223, 9.351504641276644], [-0.018906624828242104, 4.043041578641637, 2.4023988078466654], [0.5465043737457413, 8.653156852754066, 9.729030568742973], [4.0190671515937515, 5.177188969583225, 9.56487073122805], [3.453656153019771, 0.5670736954707966, 2.238238970331742], [5.035481889298413, 3.917677788473911, 2.6390049900768555], [2.437241415315113, 8.527793062586339, 9.164104711482931], [-1.0353213625329067, 5.3025527597509505, 9.328264548997854], [1.5629191114504086, 0.6924374856385185, 2.8031648275917784], [0.36635003192154536, 0.7068607597998511, 6.330242815389257], [0.1612477169959545, 5.316976033912279, 5.801186561200383], [3.6338104948439627, 8.513369788425011, 5.637026723685459], [3.838912809769559, 3.903254514312581, 6.166082977874333], [4.993244922974524, 6.226505061369721, -0.386654638226174], [5.42444341056951, 1.616389787257281, -0.10582487431859235], [1.9518806327214941, 2.993725486855149, 0.05833496319633124], [1.5206821451265131, 7.603840760967569, -0.22249480071125072]], "vdw gap": 1.7958579487237412, "bond length deviation": [["Sb", 0.5799857533803029], ["S", 0.4881274107723227]], "bond angle deviation": [["Sb", 24.004395658168704], ["S", 17.130015600082075]], "mass density": 4.379264570646822, "total energy": -619.84548133, "total energy_soc": -620.04347376, "cohesive energy": -9.05407896236606, "exfoliation energy": -0.06661835970293432, "born effective charge tensor": 5.792041428571428, "born effective charge q_xy": 2.8473621149121042, "born effective charge q_z": 1.8990528571428578, "dielectric constant XY": 15.480770224051934, "dielectric constant Z": 12.270468, "bader charge": [["Sb", 5.0, 3.834325], ["Sb", 5.0, 3.834325], ["Sb", 5.0, 3.834325], ["Sb", 5.0, 3.834325], ["Sb", 5.0, 3.601593], ["Sb", 5.0, 3.601593], ["Sb", 5.0, 3.601601], ["Sb", 5.0, 3.601601], ["S", 5.0, 6.730247], ["S", 5.0, 6.730247], ["S", 5.0, 6.730247], ["S", 5.0, 6.730247], ["S", 5.0, 6.204719], ["S", 5.0, 6.204719], ["S", 5.0, 6.204719], ["S", 5.0, 6.204719], ["S", 5.0, 6.242451], ["S", 5.0, 6.242451], ["S", 5.0, 6.242451], ["S", 5.0, 6.242451], ["S", 5.0, 6.75883], ["S", 5.0, 6.758321], ["S", 5.0, 6.758314], ["S", 5.0, 6.758823], ["S", 5.0, 6.628084], ["S", 5.0, 6.628094], ["S", 5.0, 6.628094], ["S", 5.0, 6.628084]], "density of states at fermi": 0.0, "effective mass": -0.5344801708938777, "vbm": 0, "cbm": 0, "band gap": 0, "vbm soc": 0, "cbm soc": 0, "band gap soc": 0, "layered?": true, "component layers": ["S20Sb8-P2_1_c"], "KPath": ["0.0000 0.5000 0.0000 ! Z", "0.0000 0.0000 0.0000 ! G", "0.0000 0.0000 0.0000 ! G", "-0.5000 0.5000 0.0000 ! A", "-0.5000 0.5000 0.0000 ! A", "-0.5000 0.0000 0.5000 ! C", "-0.5000 0.0000 0.5000 ! C", "0.0000 0.5000 0.5000 ! D", "0.0000 0.5000 0.5000 ! D", "0.0000 0.5000 -0.5000 ! D1", "0.0000 0.5000 -0.5000 ! D1", "-0.5000 0.5000 0.5000 ! E", "-0.5000 0.5000 0.5000 ! E", "-0.4496 0.0000 0.6531 ! H", "-0.4496 0.0000 0.6531 ! H", "-0.5504 0.0000 0.3469 ! H1", "-0.5504 0.0000 0.3469 ! H1", "-0.4496 0.0000 -0.3469 ! H2", "-0.4496 0.0000 -0.3469 ! H2", "-0.4496 0.5000 0.6531 ! M", "-0.4496 0.5000 0.6531 ! M", "-0.5504 0.5000 0.3469 ! M1", "-0.5504 0.5000 0.3469 ! M1", "-0.4496 0.5000 -0.3469 ! M2", "-0.4496 0.5000 -0.3469 ! M2", "-0.5000 0.0000 0.0000 ! X", "-0.5000 0.0000 0.0000 ! X", "0.0000 0.0000 0.5000 ! Y", "0.0000 0.0000 0.5000 ! Y", "0.0000 0.0000 -0.5000 ! Y1", "0.0000 0.0000 -0.5000 ! Y1", "0.0000 0.5000 0.0000 ! Z"], "band locations": "/home/gtown/Documents/carbon/mpAll/allbulk/calcs/dir_S20Sb8-mp-1359089/scf/band", "band soc location": "/home/gtown/Documents/carbon/mpAll/allbulk/calcs/dir_S20Sb8-mp-1359089/scf_soc/band_soc", "dos location": "/home/gtown/Documents/carbon/mpAll/allbulk/calcs/dir_S20Sb8-mp-1359089/scf/dos"}