{"MP-ID": "mp-1179618", "formula": "Sb14", "spacegroup": "P-1 (2)", "cell": {"array": [[6.084509617709473, 0.2247861723988542, -0.5646633731338907], [0.4731511894295783, 8.318463007773014, 0.5514550966900955], [-3.4753792325869903, -1.9955215606067076, 8.575023916025179]]}, "symbols": ["Sb", "Sb", "Sb", "Sb", "Sb", "Sb", "Sb", "Sb", "Sb", "Sb", "Sb", "Sb", "Sb", "Sb"], "positions": [[0.0, 0.0, 0.0], [-1.501114021578706, 3.161470723583153, 4.563239506357637], [3.2788304035695255, 4.271624590085934, -0.006604138221897593], [1.3045651925612411, -0.8853676941039267, 4.005180271445644], [2.850171172733519, 1.3618249155271887, 0.5363811721344002], [0.23211040181854137, 5.185902704037971, 8.025434467446978], [2.4339866231495475, 0.8979217628757028, 6.359059592340539], [0.6482949514025129, 5.649805856689455, 2.2027560472408396], [-2.646068008236907, 3.623348085246332, 7.389909792341943], [-0.35616003492050563, 2.6995933619199786, 1.7365692203733345], [2.0247583445721644, 1.8932901189862894, 3.415159064786566], [1.0575232299798951, 4.654437500578881, 5.146656574794818], [-0.5638578951777103, 0.4818403978310479, 6.063879848288818], [3.646139469729767, 6.065887221734113, 2.4979357912925706]], "vdw gap": 1.2001880482389344, "bond length deviation": [["Sb", 0.41178334933929867]], "bond angle deviation": [["Sb", 23.933595651133217]], "mass density": 4.024072008055347, "total energy": -277.70888468, "total energy_soc": -280.95307334, "cohesive energy": 5.8699668242857195, "exfoliation energy": [], "born effective charge tensor": 14.200079285714287, "born effective charge q_xy": 6.187287226894707, "born effective charge q_z": 6.336842857142857, "dielectric constant XY": 313.49303426840135, "dielectric constant Z": 357.318558, "bader charge": [["Sb", 5.0, 4.942427], ["Sb", 5.0, 4.949691], ["Sb", 5.0, 4.953078], ["Sb", 5.0, 4.966114], ["Sb", 5.0, 4.982495], ["Sb", 5.0, 4.982978], ["Sb", 5.0, 4.989598], ["Sb", 5.0, 4.989598], ["Sb", 5.0, 5.010568], ["Sb", 5.0, 5.010555], ["Sb", 5.0, 5.018098], ["Sb", 5.0, 5.018279], ["Sb", 5.0, 5.093262], ["Sb", 5.0, 5.093259]], "density of states at fermi": 5.254, "effective mass": -0.09460576942303024, "vbm": 0, "cbm": 0, "band gap": 0, "vbm soc": 0, "cbm soc": 0, "band gap soc": 0, "layered?": false, "component layers": [], "KPath": ["0.0000 0.5000 -0.5000 ! Z", "0.0000 0.0000 0.0000 ! G", "0.0000 0.0000 0.0000 ! G", "0.5000 -0.5000 0.0000 ! L", "0.5000 -0.5000 0.0000 ! L", "0.0000 0.0000 -0.5000 ! M", "0.0000 0.0000 -0.5000 ! M", "0.5000 0.5000 -0.5000 ! N", "0.5000 0.5000 -0.5000 ! N", "0.5000 0.0000 -0.5000 ! R", "0.5000 0.0000 -0.5000 ! R", "0.5000 0.0000 0.0000 ! X", "0.5000 0.0000 0.0000 ! X", "0.0000 -0.5000 0.0000 ! Y", "0.0000 -0.5000 0.0000 ! Y", "0.0000 0.5000 -0.5000 ! Z"], "band locations": "/home/gtown/Documents/carbon/mpAll/allbulk/calcs/dir_Sb14-mp-1179618/scf/band", "band soc location": "/home/gtown/Documents/carbon/mpAll/allbulk/calcs/dir_Sb14-mp-1179618/scf_soc/band_soc", "dos location": "/home/gtown/Documents/carbon/mpAll/allbulk/calcs/dir_Sb14-mp-1179618/scf/dos"}