{"MP-ID": "mp-1179605", "formula": "Sb2", "spacegroup": "P2_1/m (11)", "cell": {"array": [[3.0891372646028885, 0.0, -0.1742592991345232], [0.0, 3.0183353055312243, 0.0], [-0.3692169703108121, 0.0, 5.888627063904483]]}, "symbols": ["Sb", "Sb"], "positions": [[-0.09347581200144446, 0.7545838263828061, 1.4724944472860952], [-0.2757411583093677, 2.2637514791484183, 4.416132616618389]], "vdw gap": 2.943638169332294, "bond length deviation": [["Sb", 0.1358248106792501]], "bond angle deviation": [["Sb", 19.881739492007004]], "mass density": 4.450604641344969, "total energy": -37.62618375, "total energy_soc": -37.67300797, "cohesive energy": 6.893223854999999, "exfoliation energy": NaN, "born effective charge tensor": 0.0, "born effective charge q_xy": 0.0, "born effective charge q_z": 0.0, "dielectric constant XY": 151.1434950588624, "dielectric constant Z": 19.266585, "bader charge": [["Sb", 5.0, 5.0], ["Sb", 5.0, 5.0]], "density of states at fermi": 0.9509, "effective mass": 1.079608818506675, "vbm": 0, "cbm": 0, "band gap": 0, "vbm soc": 0, "cbm soc": 0, "band gap soc": 0, "layered?": true, "component layers": ["Sb-UNK", "Sb-UNK"], "KPath": ["0.0000 0.5000 0.0000 ! Z", "0.0000 0.0000 0.0000 ! G", "0.0000 0.0000 0.0000 ! G", "-0.5000 0.5000 0.0000 ! A", "-0.5000 0.5000 0.0000 ! A", "-0.5000 0.0000 0.5000 ! C", "-0.5000 0.0000 0.5000 ! C", "0.0000 0.5000 0.5000 ! D", "0.0000 0.5000 0.5000 ! D", "0.0000 0.5000 -0.5000 ! D1", "0.0000 0.5000 -0.5000 ! D1", "-0.5000 0.5000 0.5000 ! E", "-0.5000 0.5000 0.5000 ! E", "-0.4969 0.0000 0.5062 ! H", "-0.4969 0.0000 0.5062 ! H", "-0.5031 0.0000 0.4938 ! H1", "-0.5031 0.0000 0.4938 ! H1", "-0.4969 0.0000 -0.4938 ! H2", "-0.4969 0.0000 -0.4938 ! H2", "-0.4969 0.5000 0.5062 ! M", "-0.4969 0.5000 0.5062 ! M", "-0.5031 0.5000 0.4938 ! M1", "-0.5031 0.5000 0.4938 ! M1", "-0.4969 0.5000 -0.4938 ! M2", "-0.4969 0.5000 -0.4938 ! M2", "-0.5000 0.0000 0.0000 ! X", "-0.5000 0.0000 0.0000 ! X", "0.0000 0.0000 0.5000 ! Y", "0.0000 0.0000 0.5000 ! Y", "0.0000 0.0000 -0.5000 ! Y1", "0.0000 0.0000 -0.5000 ! Y1", "0.0000 0.5000 0.0000 ! Z"], "band locations": "/home/gtown/Documents/carbon/mpAll/allbulk/calcs/dir_Sb2-mp-1179605/scf/band", "band soc location": "/home/gtown/Documents/carbon/mpAll/allbulk/calcs/dir_Sb2-mp-1179605/scf_soc/band_soc", "dos location": "/home/gtown/Documents/carbon/mpAll/allbulk/calcs/dir_Sb2-mp-1179605/scf/dos"}