{"MP-ID": "mp-632286", "formula": "Sb2", "spacegroup": "P2_1/m (11)", "cell": {"array": [[3.089970335748965, 0.0, -0.1479223095223461], [0.0, 3.018699857369032, 0.0], [-0.3944339288762601, 0.0, 5.887260354220453]]}, "symbols": ["Sb", "Sb"], "positions": [[-0.09618112965879051, 0.754674964342258, 1.470677779590222], [-0.29825279921747017, 2.264024893026774, 4.416582574630236]], "vdw gap": 2.945904795040014, "bond length deviation": [["Sb", 0.1359153668680388]], "bond angle deviation": [["Sb", 19.858026475230186]], "mass density": 4.448428687558527, "total energy": -37.70302442, "total energy_soc": -37.74319848, "cohesive energy": 6.854803520000001, "exfoliation energy": NaN, "born effective charge tensor": 0.0, "born effective charge q_xy": 0.0, "born effective charge q_z": 0.0, "dielectric constant XY": 166.7259667724346, "dielectric constant Z": 19.284891, "bader charge": [["Sb", 5.0, 5.0], ["Sb", 5.0, 5.0]], "density of states at fermi": 0.9515, "effective mass": 1.1225268763222132, "vbm": 0, "cbm": 0, "band gap": 0, "vbm soc": 0, "cbm soc": 0, "band gap soc": 0, "layered?": true, "component layers": ["Sb-UNK", "Sb-UNK"], "KPath": ["0.0000 0.5000 0.0000 ! Z", "0.0000 0.0000 0.0000 ! G", "0.0000 0.0000 0.0000 ! G", "-0.5000 0.5000 0.0000 ! A", "-0.5000 0.5000 0.0000 ! A", "-0.5000 0.0000 0.5000 ! C", "-0.5000 0.0000 0.5000 ! C", "0.0000 0.5000 0.5000 ! D", "0.0000 0.5000 0.5000 ! D", "0.0000 0.5000 -0.5000 ! D1", "0.0000 0.5000 -0.5000 ! D1", "-0.5000 0.5000 0.5000 ! E", "-0.5000 0.5000 0.5000 ! E", "-0.4900 0.0000 0.5198 ! H", "-0.4900 0.0000 0.5198 ! H", "-0.5100 0.0000 0.4802 ! H1", "-0.5100 0.0000 0.4802 ! H1", "-0.4900 0.0000 -0.4802 ! H2", "-0.4900 0.0000 -0.4802 ! H2", "-0.4900 0.5000 0.5198 ! M", "-0.4900 0.5000 0.5198 ! M", "-0.5100 0.5000 0.4802 ! M1", "-0.5100 0.5000 0.4802 ! M1", "-0.4900 0.5000 -0.4802 ! M2", "-0.4900 0.5000 -0.4802 ! M2", "-0.5000 0.0000 0.0000 ! X", "-0.5000 0.0000 0.0000 ! X", "0.0000 0.0000 0.5000 ! Y", "0.0000 0.0000 0.5000 ! Y", "0.0000 0.0000 -0.5000 ! Y1", "0.0000 0.0000 -0.5000 ! Y1", "0.0000 0.5000 0.0000 ! Z"], "band locations": "/home/gtown/Documents/carbon/mpAll/allbulk/calcs/dir_Sb2-mp-632286/scf/band", "band soc location": "/home/gtown/Documents/carbon/mpAll/allbulk/calcs/dir_Sb2-mp-632286/scf_soc/band_soc", "dos location": "/home/gtown/Documents/carbon/mpAll/allbulk/calcs/dir_Sb2-mp-632286/scf/dos"}