{"MP-ID": "mp-12826", "formula": "Sb24Te9", "spacegroup": "R-3m (166)", "cell": {"array": [[4.329782162091542, 4e-16, 0.0], [-2.16489108104577, 3.7497013452239853, -0.0], [1e-16, -2e-16, 64.77796830742909]]}, "symbols": ["Sb", "Sb", "Sb", "Sb", "Sb", "Sb", "Sb", "Sb", "Sb", "Sb", "Sb", "Sb", "Sb", "Sb", "Sb", "Sb", "Sb", "Sb", "Sb", "Sb", "Sb", "Sb", "Sb", "Sb", "Te", "Te", "Te", "Te", "Te", "Te", "Te", "Te", "Te"], "positions": [[2.1648911026946687, 1.2499004359089987, 10.048911361595886], [-2.1648896678284682e-08, 2.499800909314987, 19.635861315262655], [-2.1648896705576467e-08, 2.499800909314987, 1.9567952190670097], [1.782047944166558e-17, -3.564095888333116e-17, 11.543744524954045], [-2.164889669668258e-08, 2.499800909314987, 7.718074309865322], [2.1648911026946687, 1.2499004359089987, 15.383652506451266], [9.58505421261587e-18, -1.917010842523174e-17, 6.209003380098205], [-2.1648896687178567e-08, 2.499800909314987, 13.874582224464351], [-2.1648896659751055e-08, 2.499800909314987, 31.641567895925558], [6.364589424315706e-17, -1.2729178848631411e-16, 41.22851720181212], [3.635410575684291e-17, -7.270821151368582e-17, 23.549451105616953], [2.1648911026946687, 1.2499004359089987, 33.13640041150354], [4.524799243055803e-17, -9.049598486111606e-17, 29.310730196414795], [-2.1648896651515628e-08, 2.499800909314987, 36.97630904078093], [2.1648911026946687, 1.2499004359089987, 27.801659266648148], [5.475200756944198e-17, -1.0950401513888396e-16, 35.467238111014304], [8.21795205583344e-17, -1.643590411166688e-16, 53.23422378247503], [2.1648911026946687, 1.2499004359089985, 62.82117308836206], [2.1648911026946687, 1.2499004359089985, 45.14210699216645], [-2.1648896624110096e-08, 2.499800909314987, 54.729056945833214], [2.1648911026946687, 1.2499004359089985, 50.90338608296472], [9.04149457873841e-17, -1.808298915747682e-16, 58.56896492733087], [-2.164889663234552e-08, 2.499800909314987, 49.394315800977836], [2.1648911026946687, 1.2499004359089985, 57.05989399756378], [2.1648911026946687, 1.2499004359089987, 3.636406349081331], [2.77196861936913e-17, -5.54393723873826e-17, 17.95624953746815], [0.0, 0.0, 0.0], [-2.164889666965026e-08, 2.499800909314987, 25.22906288341101], [2.1648911026946687, 1.2499004359089985, 39.54890542401807], [2.1648911026946687, 1.2499004359089987, 21.592655886549938], [7.228031380630871e-17, -1.4456062761261742e-16, 46.82171876996095], [-2.1648896614210888e-08, 2.499800909314987, 61.14156195834775], [-2.1648896641930574e-08, 2.499800909314987, 43.18531242087915]], "vdw gap": 2.5725970310168833, "bond length deviation": [["Sb", 0.2521779044747117]], "bond angle deviation": [["Sb", 6.758905498249143]], "mass density": 3.870321490664479, "total energy": -825.02355244, "total energy_soc": -824.24277884, "cohesive energy": 0.6267589051515394, "exfoliation energy": -1.4051127829308843, "born effective charge tensor": 8.303736363636364, "born effective charge q_xy": 3.0393300000000005, "born effective charge q_z": 2.2250763636363633, "dielectric constant XY": 64.407937, "dielectric constant Z": 97.827976, "bader charge": [["Sb", 5.0, 4.987189], ["Sb", 5.0, 4.505801], ["Sb", 5.0, 4.499195], ["Sb", 5.0, 5.009235], ["Sb", 5.0, 5.028618], ["Sb", 5.0, 4.945573], ["Sb", 5.0, 4.94178], ["Sb", 5.0, 5.002455], ["Sb", 5.0, 5.006082], ["Sb", 5.0, 4.50097], ["Sb", 5.0, 4.50097], ["Sb", 5.0, 5.0018], ["Sb", 5.0, 5.00997], ["Sb", 5.0, 4.943077], ["Sb", 5.0, 4.943077], ["Sb", 5.0, 5.009964], ["Sb", 5.0, 5.009235], ["Sb", 5.0, 4.49918], ["Sb", 5.0, 4.505801], ["Sb", 5.0, 4.987189], ["Sb", 5.0, 5.002455], ["Sb", 5.0, 4.94178], ["Sb", 5.0, 4.945573], ["Sb", 5.0, 5.028618], ["Te", 6.0, 6.32251], ["Te", 6.0, 6.319257], ["Te", 6.0, 6.443249], ["Te", 6.0, 6.321509], ["Te", 6.0, 6.321509], ["Te", 6.0, 6.437298], ["Te", 6.0, 6.319257], ["Te", 6.0, 6.322525], ["Te", 6.0, 6.437298]], "density of states at fermi": 0.0, "effective mass": -3.850566305725185, "vbm": 0, "cbm": 0, "band gap": 0, "vbm soc": 0, "cbm soc": 0, "band gap soc": 0, "layered?": true, "component layers": ["Sb2Te3-P_3m1", "Sb2Te3-P_3m1", "Sb2-P6_3_mmc", "Sb2-P6_3_mmc", "Sb2-P6_3_mmc", "Sb2-P6_3_mmc", "Sb2-P6_3_mmc", "Sb2-P6_3_mmc", "Sb2-P6_3_mmc", "Sb2Te3-P_3m1", "Sb2-P6_3_mmc", "Sb2-P6_3_mmc"], "KPath": ["0.5000 0.0000 0.0000 ! M", "0.0000 0.0000 0.0000 ! G", "0.0000 0.0000 0.0000 ! G", "0.0000 0.0000 0.5000 ! A", "0.0000 0.0000 0.5000 ! A", "0.3333 0.3333 0.5000 ! H", "0.3333 0.3333 0.5000 ! H", "0.3333 0.3333 0.0000 ! K", "0.3333 0.3333 0.0000 ! K", "0.5000 0.0000 0.5000 ! L", "0.5000 0.0000 0.5000 ! L", "0.5000 0.0000 0.0000 ! M"], "band locations": "/home/gtown/Documents/carbon/mpAll/allbulk/calcs/dir_Sb24Te9-mp-12826/scf/band", "band soc location": "/home/gtown/Documents/carbon/mpAll/allbulk/calcs/dir_Sb24Te9-mp-12826/scf_soc/band_soc", "dos location": "/home/gtown/Documents/carbon/mpAll/allbulk/calcs/dir_Sb24Te9-mp-12826/scf/dos"}