{"MP-ID": "mp-4573", "formula": "Sb3Te6Tl3", "spacegroup": "R-3m (166)", "cell": {"array": [[4.436686980832597, -2e-16, 0.0], [-2.2183434904162977, 3.8422836340407125, -0.0], [1e-16, -0.0, 23.539032581789712]]}, "symbols": ["Tl", "Tl", "Tl", "Sb", "Sb", "Sb", "Te", "Te", "Te", "Te", "Te", "Te"], "positions": [[0.0, 0.0, 0.0], [2.2183435125997195, 1.2807611985393, 7.846344115466511], [-2.2183420326351325e-08, 2.5615224355014123, 15.692688466323201], [2.2183435125997195, 1.2807611985393, 19.615860406361367], [-2.2183420376351326e-08, 2.5615224355014123, 3.923172175428345], [5e-17, 0.0, 11.769516290894856], [-2.218342030235094e-08, 2.5615224355014123, 21.342147117995925], [7.599961412159622e-17, 0.0, 17.88957393011699], [2.400038587840379e-17, 0.0, 5.649458651672726], [2.2183435125997195, 1.2807611985393, 2.1968854637937865], [2.2183435125997195, 1.2807611985393, 13.495802767139068], [-2.2183420350351712e-08, 2.5615224355014123, 10.043229814650642]], "vdw gap": 2.196885699184133, "bond length deviation": [["Sb", 6.74512184851249e-08]], "bond angle deviation": [["Sb", 1.831191968467696]], "mass density": 4.3461746076862156, "total energy": -308.66417428, "total energy_soc": -307.52354515, "cohesive energy": 6.708002709166664, "exfoliation energy": [], "born effective charge tensor": 28.139367500000006, "born effective charge q_xy": 5.721252499999999, "born effective charge q_z": 16.696862500000005, "dielectric constant XY": 35.551566, "dielectric constant Z": 806.023477, "bader charge": [["Tl", 3.0, 2.67514], ["Tl", 3.0, 2.675134], ["Tl", 3.0, 2.675134], ["Sb", 5.0, 4.401151], ["Sb", 5.0, 4.401151], ["Sb", 5.0, 4.401151], ["Te", 6.0, 6.461872], ["Te", 6.0, 6.461892], ["Te", 6.0, 6.4619], ["Te", 6.0, 6.461808], ["Te", 6.0, 6.461836], ["Te", 6.0, 6.461828]], "density of states at fermi": 0.0, "effective mass": "UNKNOWN", "vbm": 0, "cbm": 0, "band gap": 0, "vbm soc": 0, "cbm soc": 0, "band gap soc": 0, "layered?": false, "component layers": [], "KPath": ["0.5000 0.0000 0.0000 ! M", "0.0000 0.0000 0.0000 ! G", "0.0000 0.0000 0.0000 ! G", "0.0000 0.0000 0.5000 ! A", "0.0000 0.0000 0.5000 ! A", "0.3333 0.3333 0.5000 ! H", "0.3333 0.3333 0.5000 ! H", "0.3333 0.3333 0.0000 ! K", "0.3333 0.3333 0.0000 ! K", "0.5000 0.0000 0.5000 ! L", "0.5000 0.0000 0.5000 ! L", "0.5000 0.0000 0.0000 ! M"], "band locations": "/home/gtown/Documents/carbon/mpAll/allbulk/calcs/dir_Sb3Te6Tl3-mp-4573/scf/band", "band soc location": "/home/gtown/Documents/carbon/mpAll/allbulk/calcs/dir_Sb3Te6Tl3-mp-4573/scf_soc/band_soc", "dos location": "/home/gtown/Documents/carbon/mpAll/allbulk/calcs/dir_Sb3Te6Tl3-mp-4573/scf/dos"}