{"MP-ID": "mp-567409", "formula": "Sb4", "spacegroup": "P2_1/m (11)", "cell": {"array": [[4.406580725622132, 0.0, 0.4936141958549241], [0.0, 4.429122556415338, 0.0], [-0.6436525865815531, 0.0, 5.840679718980475]]}, "symbols": ["Sb", "Sb", "Sb", "Sb"], "positions": [[0.6193782971993023, 1.1072806391038346, 4.503977075917664], [2.8212724067681054, 3.3218419173115037, 4.7511074866118514], [0.9416557322724727, 1.1072806391038346, 1.5831864282235477], [3.143549841841276, 3.3218419173115037, 1.8303168389177351]], "vdw gap": 2.673660236999929, "bond length deviation": [["Sb", 0.09420257972192944]], "bond angle deviation": [["Sb", 0.07288737552345585]], "mass density": 4.220052044836201, "total energy": -65.06279725, "total energy_soc": -65.41938036, "cohesive energy": 9.4406164175, "exfoliation energy": [], "born effective charge tensor": 0.00010999999999999999, "born effective charge q_xy": 8.062257748298549e-05, "born effective charge q_z": 0.0, "dielectric constant XY": 3.81445806524033, "dielectric constant Z": 5.891327, "bader charge": [["Sb", 5.0, 5.000652], ["Sb", 5.0, 4.999348], ["Sb", 5.0, 4.998633], ["Sb", 5.0, 5.001368]], "density of states at fermi": 0.0, "effective mass": 42.15400837608928, "vbm": 0, "cbm": 0, "band gap": 0, "vbm soc": 0, "cbm soc": 0, "band gap soc": 0, "layered?": false, "component layers": [], "KPath": ["0.0000 0.5000 0.0000 ! Z", "0.0000 0.0000 0.0000 ! G", "0.0000 0.0000 0.0000 ! G", "-0.5000 0.5000 0.0000 ! A", "-0.5000 0.5000 0.0000 ! A", "-0.5000 0.0000 0.5000 ! C", "-0.5000 0.0000 0.5000 ! C", "0.0000 0.5000 0.5000 ! D", "0.0000 0.5000 0.5000 ! D", "0.0000 0.5000 -0.5000 ! D1", "0.0000 0.5000 -0.5000 ! D1", "-0.5000 0.5000 0.5000 ! E", "-0.5000 0.5000 0.5000 ! E", "-0.4477 0.0000 0.6306 ! H", "-0.4477 0.0000 0.6306 ! H", "-0.5523 0.0000 0.3694 ! H1", "-0.5523 0.0000 0.3694 ! H1", "-0.4477 0.0000 -0.3694 ! H2", "-0.4477 0.0000 -0.3694 ! H2", "-0.4477 0.5000 0.6306 ! M", "-0.4477 0.5000 0.6306 ! M", "-0.5523 0.5000 0.3694 ! M1", "-0.5523 0.5000 0.3694 ! M1", "-0.4477 0.5000 -0.3694 ! M2", "-0.4477 0.5000 -0.3694 ! M2", "-0.5000 0.0000 0.0000 ! X", "-0.5000 0.0000 0.0000 ! X", "0.0000 0.0000 0.5000 ! Y", "0.0000 0.0000 0.5000 ! Y", "0.0000 0.0000 -0.5000 ! Y1", "0.0000 0.0000 -0.5000 ! Y1", "0.0000 0.5000 0.0000 ! Z"], "band locations": "/home/gtown/Documents/carbon/mpAll/allbulk/calcs/dir_Sb4-mp-567409/scf/band", "band soc location": "/home/gtown/Documents/carbon/mpAll/allbulk/calcs/dir_Sb4-mp-567409/scf_soc/band_soc", "dos location": "/home/gtown/Documents/carbon/mpAll/allbulk/calcs/dir_Sb4-mp-567409/scf/dos"}