{"MP-ID": "mp-104", "formula": "Sb6", "spacegroup": "R-3m (166)", "cell": {"array": [[4.345948067262825, -0.0, 0.0], [-2.1729740336314114, 3.763701429777488, -0.0], [-0.0, -0.0, 11.30194740406304]]}, "symbols": ["Sb", "Sb", "Sb", "Sb", "Sb", "Sb"], "positions": [[0.0, 0.0, 3.0253537354720335], [2.172974055361139, 1.2545671307134991, 0.7419620282091788], [2.172974055361139, 1.2545671307134991, 6.792669499153244], [-2.172972616979501e-08, 2.509134299063989, 4.509277904909794], [-2.172972616979501e-08, 2.509134299063989, 10.55998537585386], [0.0, 0.0, 8.276593668591007]], "vdw gap": 2.2833917072628545, "bond length deviation": [["Sb", 0.24213098367236732]], "bond angle deviation": [["Sb", 6.193679601360566]], "mass density": 3.951547820599484, "total energy": -140.66951929, "total energy_soc": -141.0943197, "cohesive energy": 2.2613958483333314, "exfoliation energy": -0.17532689236117494, "born effective charge tensor": 0.0, "born effective charge q_xy": 0.0, "born effective charge q_z": 0.0, "dielectric constant XY": 21.224294, "dielectric constant Z": 30.534585, "bader charge": [["Sb", 5.0, 5.008569], ["Sb", 5.0, 4.988724], ["Sb", 5.0, 4.992358], ["Sb", 5.0, 5.009108], ["Sb", 5.0, 4.992659], ["Sb", 5.0, 5.008582]], "density of states at fermi": 0.0, "effective mass": -0.36995810135789137, "vbm": 0, "cbm": 0, "band gap": 0, "vbm soc": 0, "cbm soc": 0, "band gap soc": 0, "layered?": true, "component layers": ["Sb2-P6_3_mmc", "Sb2-P6_3_mmc", "Sb2-P6_3_mmc"], "KPath": ["0.5000 0.0000 0.0000 ! M", "0.0000 0.0000 0.0000 ! G", "0.0000 0.0000 0.0000 ! G", "0.0000 0.0000 0.5000 ! A", "0.0000 0.0000 0.5000 ! A", "0.3333 0.3333 0.5000 ! H", "0.3333 0.3333 0.5000 ! H", "0.3333 0.3333 0.0000 ! K", "0.3333 0.3333 0.0000 ! K", "0.5000 0.0000 0.5000 ! L", "0.5000 0.0000 0.5000 ! L", "0.5000 0.0000 0.0000 ! M"], "band locations": "/home/gtown/Documents/carbon/mpAll/allbulk/calcs/dir_Sb6-mp-104/scf/band", "band soc location": "/home/gtown/Documents/carbon/mpAll/allbulk/calcs/dir_Sb6-mp-104/scf_soc/band_soc", "dos location": "/home/gtown/Documents/carbon/mpAll/allbulk/calcs/dir_Sb6-mp-104/scf/dos"}