{"MP-ID": "mp-27947", "formula": "Sb6Sn3Te12", "spacegroup": "R-3m (166)", "cell": {"array": [[4.335768876242956, -6e-16, 0.0], [-2.1678844381214772, 3.754885991764308, -1e-16], [1e-16, -5e-16, 42.28953279560006]]}, "symbols": ["Sn", "Sn", "Sn", "Sb", "Sb", "Sb", "Sb", "Sb", "Sb", "Te", "Te", "Te", "Te", "Te", "Te", "Te", "Te", "Te", "Te", "Te", "Te"], "positions": [[0.0, 0.0, 0.0], [2.1678844598003093, 1.2516286514051564, 14.096510790901666], [-2.1678830011304433e-08, 2.50325734035915, 28.193022004698395], [-2.1678830053774916e-08, 2.5032573403591503, 10.232453271310344], [-2.167883006883395e-08, 2.5032573403591503, 3.8640579424863866], [5.752951724437889e-17, -2.876475862218945e-16, 24.328964062212002], [4.247048275562109e-17, -2.1235241377810549e-16, 17.96056873338805], [2.1678844598003093, 1.2516286514051562, 38.42547485311367], [2.1678844598003093, 1.2516286514051562, 32.05707952428972], [2.1678844598003093, 1.2516286514051567, 8.580354908332374], [1.304378534809259e-17, -6.521892674046295e-17, 5.516155882569292], [2.1678844598003093, 1.2516286514051567, 1.8728171075959377], [2.890477353435676e-17, -1.445238676717838e-16, 12.223693683305727], [-2.1678830024348217e-08, 2.50325734035915, 22.67686612212909], [2.1678844598003093, 1.2516286514051564, 19.61266667347095], [-2.1678830040209207e-08, 2.5032573403591503, 15.969328321392966], [2.1678844598003093, 1.2516286514051564, 26.320204474207088], [8.695621465190738e-17, -4.3478107325953696e-16, 36.77337691303076], [-2.1678829998260648e-08, 2.50325734035915, 33.7091778872677], [7.109522646564326e-17, -3.5547613232821633e-16, 30.065839112294338], [-2.167882998239966e-08, 2.50325734035915, 40.41671568800412]], "vdw gap": 3.0641994486581403, "bond length deviation": [["Sb", 0.10109322315911637], ["Sn", 1.2460508732639906e-07]], "bond angle deviation": [["Sb", 2.7626030916787276], ["Sn", 2.2258720442506132]], "mass density": 3.8022938266111543, "total energy": -545.36401301, "total energy_soc": -546.77111641, "cohesive energy": -0.5657559795238123, "exfoliation energy": 0.04962032717975919, "born effective charge tensor": 15.088460000000001, "born effective charge q_xy": 6.475657142857144, "born effective charge q_z": 2.137145714285714, "dielectric constant XY": 38.911169, "dielectric constant Z": 37.715867, "bader charge": [["Sn", 4.0, 3.379928], ["Sn", 4.0, 3.379816], ["Sn", 4.0, 3.379833], ["Sb", 5.0, 4.462362], ["Sb", 5.0, 4.461254], ["Sb", 5.0, 4.460517], ["Sb", 5.0, 4.460508], ["Sb", 5.0, 4.46123], ["Sb", 5.0, 4.462362], ["Te", 6.0, 6.313654], ["Te", 6.0, 6.314067], ["Te", 6.0, 6.534829], ["Te", 6.0, 6.534126], ["Te", 6.0, 6.315715], ["Te", 6.0, 6.315212], ["Te", 6.0, 6.533938], ["Te", 6.0, 6.533938], ["Te", 6.0, 6.314091], ["Te", 6.0, 6.313654], ["Te", 6.0, 6.534109], ["Te", 6.0, 6.534857]], "density of states at fermi": 0.0, "effective mass": "UNKNOWN", "vbm": 0, "cbm": 0, "band gap": 0, "vbm soc": 0, "cbm soc": 0, "band gap soc": 0, "layered?": true, "component layers": ["Sb2SnTe4-P_3m1", "Sb2SnTe4-P_3m1", "Sb2SnTe4-P_3m1"], "KPath": ["0.5000 0.0000 0.0000 ! M", "0.0000 0.0000 0.0000 ! G", "0.0000 0.0000 0.0000 ! G", "0.0000 0.0000 0.5000 ! A", "0.0000 0.0000 0.5000 ! A", "0.3333 0.3333 0.5000 ! H", "0.3333 0.3333 0.5000 ! H", "0.3333 0.3333 0.0000 ! K", "0.3333 0.3333 0.0000 ! K", "0.5000 0.0000 0.5000 ! L", "0.5000 0.0000 0.5000 ! L", "0.5000 0.0000 0.0000 ! M"], "band locations": "/home/gtown/Documents/carbon/mpAll/allbulk/calcs/dir_Sb6Sn3Te12-mp-27947/scf/band", "band soc location": "/home/gtown/Documents/carbon/mpAll/allbulk/calcs/dir_Sb6Sn3Te12-mp-27947/scf_soc/band_soc", "dos location": "/home/gtown/Documents/carbon/mpAll/allbulk/calcs/dir_Sb6Sn3Te12-mp-27947/scf/dos"}