{"MP-ID": "mp-1219475", "formula": "Sb6Se3Te6", "spacegroup": "R3m (160)", "cell": {"array": [[4.199565187355595, 1e-16, -0.0], [-2.0997825936777965, 3.6369301370987004, 0.0], [-1e-16, -3e-16, 30.377274925371616]]}, "symbols": ["Sb", "Sb", "Sb", "Sb", "Sb", "Sb", "Te", "Te", "Te", "Te", "Te", "Te", "Se", "Se", "Se"], "positions": [[-2.0997812065636613e-08, 2.4246201035222263, 1.9641764284583092], [-2.099781208569532e-08, 2.4246201035222263, 8.057465566443495], [-3.979927319142203e-17, -1.193978195742661e-16, 12.089934635657992], [-5.985798205505342e-17, -1.7957394616516023e-16, 18.18322377364318], [2.0997826146756102, 1.2123100335764738, 22.21569284285746], [2.0997826146756102, 1.2123100335764738, 28.30898198084287], [2.0997826146756102, 1.212310033576474, 3.7043923328399297], [2.0997826146756102, 1.212310033576474, 10.05014202092586], [-2.0997812104698623e-08, 2.4246201035222263, 13.830150843812392], [-2.0997812125588414e-08, 2.4246201035222263, 20.17590053189811], [-7.886128400215212e-17, -2.3658385200645636e-16, 23.955909051011854], [-9.97510764660109e-17, -2.992532293980327e-16, 30.301658739097796], [-2.173028428536106e-17, -6.519085285608317e-17, 6.601068199428954], [2.0997826146756102, 1.2123100335764738, 16.726826406628646], [-2.0997812147567622e-08, 2.424620103522226, 26.852584917601106]], "vdw gap": 2.896675866589252, "bond length deviation": [["Sb", 0.08213621286914237], ["Se", 0.4883057466813965]], "bond angle deviation": [["Sb", 4.635511369635609], ["Se", 12.742724957072314]], "mass density": 3.735127690144435, "total energy": -389.15026774, "total energy_soc": -390.19318009, "cohesive energy": -2.631623120479166, "exfoliation energy": -0.01210832629236078, "born effective charge tensor": 13.895939999999998, "born effective charge q_xy": 6.019855999999999, "born effective charge q_z": 1.8562279999999995, "dielectric constant XY": 33.770139, "dielectric constant Z": 25.465713, "bader charge": [["Sb", 5.0, 4.464575], ["Sb", 5.0, 4.226855], ["Sb", 5.0, 4.472355], ["Sb", 5.0, 4.234333], ["Sb", 5.0, 4.462495], ["Sb", 5.0, 4.230842], ["Te", 6.0, 6.257981], ["Te", 6.0, 6.45555], ["Te", 6.0, 6.258101], ["Te", 6.0, 6.457763], ["Te", 6.0, 6.259048], ["Te", 6.0, 6.462044], ["Se", 6.0, 6.586947], ["Se", 6.0, 6.586212], ["Se", 6.0, 6.584899]], "density of states at fermi": 0.0, "effective mass": -0.12549348681989198, "vbm": 0.3996000000000004, "cbm": 5.8915, "band gap": 6.2911, "vbm soc": 0, "cbm soc": 0, "band gap soc": 0, "layered?": true, "component layers": ["Sb2SeTe2-P3m1", "Sb2SeTe2-P3m1", "Sb2SeTe2-P3m1"], "KPath": ["0.5000 0.0000 0.0000 ! M", "0.0000 0.0000 0.0000 ! G", "0.0000 0.0000 0.0000 ! G", "0.0000 0.0000 0.5000 ! A", "0.0000 0.0000 0.5000 ! A", "0.3333 0.3333 0.5000 ! H", "0.3333 0.3333 0.5000 ! H", "0.3333 0.3333 0.0000 ! K", "0.3333 0.3333 0.0000 ! K", "0.5000 0.0000 0.5000 ! L", "0.5000 0.0000 0.5000 ! L", "0.5000 0.0000 0.0000 ! M"], "band locations": "/home/gtown/Documents/carbon/mpAll/allbulk/calcs/dir_Sb6Se3Te6-mp-1219475/scf/band", "band soc location": "/home/gtown/Documents/carbon/mpAll/allbulk/calcs/dir_Sb6Se3Te6-mp-1219475/scf_soc/band_soc", "dos location": "/home/gtown/Documents/carbon/mpAll/allbulk/calcs/dir_Sb6Se3Te6-mp-1219475/scf/dos"}