{"MP-ID": "mp-571550", "formula": "Sb6Se6Te3", "spacegroup": "R-3m (166)", "cell": {"array": [[4.112850780050153, 6e-16, 0.0], [-2.0564253900250753, 3.5618332574980767, -0.0], [1e-16, 4e-16, 29.738273895659233]]}, "symbols": ["Sb", "Sb", "Sb", "Sb", "Sb", "Sb", "Te", "Te", "Te", "Se", "Se", "Se", "Se", "Se", "Se"], "positions": [[-2.0564239992526643e-08, 2.3745555168714882, 7.859056678026457], [-2.056424001204814e-08, 2.3745555168714882, 2.0537014854485323], [5.97607467281844e-17, 2.390429869127376e-16, 17.77181454411869], [4.0239253271815625e-17, 1.609570130872625e-16, 11.96645935154055], [2.056425410589318, 1.1872777406265898, 27.684572410210706], [2.056425410589318, 1.1872777406265895, 21.87921721763277], [0.0, 0.0, 0.0], [2.056425410589318, 1.1872777406265895, 9.912757866092226], [-2.056423995228739e-08, 2.3745555168714887, 19.825516029567005], [2.136780116963251e-17, 8.547120467853004e-17, 6.354415237305194], [2.056425410589318, 1.1872777406265893, 3.55834262878682], [2.056425410589318, 1.1872777406265895, 16.267173103397425], [-2.0564239973655193e-08, 2.3745555168714882, 13.47110079226181], [-2.056423993091959e-08, 2.3745555168714887, 26.179931266872416], [7.863219883036747e-17, 3.1452879532146987e-16, 23.383858658354036]], "vdw gap": 2.7960726085183794, "bond length deviation": [["Sb", 9.615609438731008e-08], ["Se", 7.992097926044126e-08]], "bond angle deviation": [["Sb", 3.0001018760375607e-06], ["Se", 3.4068927189957787e-06]], "mass density": 3.6430157692713254, "total energy": -378.18737345, "total energy_soc": -378.97371849, "cohesive energy": -4.121896316958331, "exfoliation energy": -0.020873352950615678, "born effective charge tensor": 13.751198, "born effective charge q_xy": 6.237424, "born effective charge q_z": 1.27635, "dielectric constant XY": 30.85213, "dielectric constant Z": 20.887644, "bader charge": [["Sb", 5.0, 4.231763], ["Sb", 5.0, 4.203492], ["Sb", 5.0, 4.236037], ["Sb", 5.0, 4.236038], ["Sb", 5.0, 4.203492], ["Sb", 5.0, 4.231771], ["Te", 6.0, 6.509406], ["Te", 6.0, 6.452129], ["Te", 6.0, 6.452149], ["Se", 6.0, 6.540309], ["Se", 6.0, 6.542124], ["Se", 6.0, 6.538752], ["Se", 6.0, 6.540135], ["Se", 6.0, 6.542124], ["Se", 6.0, 6.540281]], "density of states at fermi": 0.01003, "effective mass": 0.10114765802163068, "vbm": 0, "cbm": 0, "band gap": 0, "vbm soc": 0, "cbm soc": 0, "band gap soc": 0, "layered?": true, "component layers": ["Sb2Se2Te-P_3m1", "Sb2Se2Te-P_3m1", "Sb2Se2Te-P_3m1"], "KPath": ["0.5000 0.0000 0.0000 ! M", "0.0000 0.0000 0.0000 ! G", "0.0000 0.0000 0.0000 ! G", "0.0000 0.0000 0.5000 ! A", "0.0000 0.0000 0.5000 ! A", "0.3333 0.3333 0.5000 ! H", "0.3333 0.3333 0.5000 ! H", "0.3333 0.3333 0.0000 ! K", "0.3333 0.3333 0.0000 ! K", "0.5000 0.0000 0.5000 ! L", "0.5000 0.0000 0.5000 ! L", "0.5000 0.0000 0.0000 ! M"], "band locations": "/home/gtown/Documents/carbon/mpAll/allbulk/calcs/dir_Sb6Se6Te3-mp-571550/scf/band", "band soc location": "/home/gtown/Documents/carbon/mpAll/allbulk/calcs/dir_Sb6Se6Te3-mp-571550/scf_soc/band_soc", "dos location": "/home/gtown/Documents/carbon/mpAll/allbulk/calcs/dir_Sb6Se6Te3-mp-571550/scf/dos"}