{"MP-ID": "mp-8612", "formula": "Sb6Se6Te3", "spacegroup": "R3m (160)", "cell": {"array": [[4.1181130838965, -1e-16, 0.0], [-2.0590565419482494, 3.566390546311447, -0.0], [-1e-16, 2e-16, 29.633053131952614]]}, "symbols": ["Sb", "Sb", "Sb", "Sb", "Sb", "Sb", "Te", "Te", "Te", "Se", "Se", "Se", "Se", "Se", "Se"], "positions": [[-2.059055227144823e-08, 2.3775937094289255, 1.7056951004839376], [-2.059055229245131e-08, 2.3775937094289255, 7.92954810723544], [-3.90893888909969e-17, 7.81787777819938e-17, 11.583379379024695], [-6.009246602596903e-17, 1.2018493205193806e-16, 17.80723238577598], [2.0590565625388026, 1.1887968368825215, 21.461063657565443], [2.0590565625388026, 1.1887968368825215, 27.684916664316734], [-2.078047693915489e-17, 4.156095387830978e-17, 6.157889772452929], [2.0590565625388026, 1.1887968368825212, 16.035574050993684], [-2.059055235313932e-08, 2.3775937094289255, 25.91325862586479], [2.0590565625388026, 1.1887968368825212, 9.773496788159514], [2.0590565625388026, 1.1887968368825212, 3.204071884427719], [-2.059055233200725e-08, 2.3775937094289255, 19.651181363030833], [-2.0590552309838003e-08, 2.3775937094289255, 13.081756459299035], [-9.964840784404802e-17, 1.9929681568809604e-16, 29.52886564157159], [-7.747916029983146e-17, 1.549583205996629e-16, 22.959440737839795]], "vdw gap": 2.95381788802521, "bond length deviation": [["Sb", 0.5962185272496201], ["Se", 0.3840044040270114]], "bond angle deviation": [["Sb", 23.341842428246483], ["Se", 10.040461662232445]], "mass density": 3.6466138578067775, "total energy": -376.20343859, "total energy_soc": -376.69534016, "cohesive energy": -3.989633992958333, "exfoliation energy": -0.059989368621195416, "born effective charge tensor": 12.517284, "born effective charge q_xy": 5.1804499999999996, "born effective charge q_z": 2.1563840000000005, "dielectric constant XY": 25.193425, "dielectric constant Z": 21.867248, "bader charge": [["Sb", 5.0, 4.097875], ["Sb", 5.0, 4.34308], ["Sb", 5.0, 4.102492], ["Sb", 5.0, 4.352774], ["Sb", 5.0, 4.100318], ["Sb", 5.0, 4.35139], ["Te", 6.0, 6.271242], ["Te", 6.0, 6.259526], ["Te", 6.0, 6.260476], ["Se", 6.0, 6.696599], ["Se", 6.0, 6.586101], ["Se", 6.0, 6.70091], ["Se", 6.0, 6.586969], ["Se", 6.0, 6.704143], ["Se", 6.0, 6.586103]], "density of states at fermi": 0.0, "effective mass": -0.2539462010683614, "vbm": 0.3776999999999999, "cbm": 5.4856, "band gap": 5.8633, "vbm soc": 5.4504, "cbm soc": 5.8546, "band gap soc": 0.40419999999999945, "layered?": true, "component layers": ["Sb2Se2Te-P3m1", "Sb2Se2Te-P3m1", "Sb2Se2Te-P3m1"], "KPath": ["0.5000 0.0000 0.0000 ! M", "0.0000 0.0000 0.0000 ! G", "0.0000 0.0000 0.0000 ! G", "0.0000 0.0000 0.5000 ! A", "0.0000 0.0000 0.5000 ! A", "0.3333 0.3333 0.5000 ! H", "0.3333 0.3333 0.5000 ! H", "0.3333 0.3333 0.0000 ! K", "0.3333 0.3333 0.0000 ! K", "0.5000 0.0000 0.5000 ! L", "0.5000 0.0000 0.5000 ! L", "0.5000 0.0000 0.0000 ! M"], "band locations": "/home/gtown/Documents/carbon/mpAll/allbulk/calcs/dir_Sb6Se6Te3-mp-8612/scf/band", "band soc location": "/home/gtown/Documents/carbon/mpAll/allbulk/calcs/dir_Sb6Se6Te3-mp-8612/scf_soc/band_soc", "dos location": "/home/gtown/Documents/carbon/mpAll/allbulk/calcs/dir_Sb6Se6Te3-mp-8612/scf/dos"}