{"MP-ID": "mp-1201", "formula": "Sb6Te9", "spacegroup": "R-3m (166)", "cell": {"array": [[4.284529558551978, 2e-16, 1e-16], [-2.1422647792759886, 3.7105114409713393, -0.0], [2e-16, 4e-16, 31.27956259476468]]}, "symbols": ["Sb", "Sb", "Sb", "Sb", "Sb", "Sb", "Te", "Te", "Te", "Te", "Te", "Te", "Te", "Te", "Te"], "positions": [[-2.1422634060539518e-08, 2.4736743063492566, 8.450072122348294], [-2.142263410193155e-08, 2.4736743063492566, 1.9764489511035515], [1.2069601565441398e-16, 2.4139203130882796e-16, 18.8765928830047], [7.930398434558594e-17, 1.5860796869117188e-16, 12.402969711759969], [2.1422648006986234, 1.2368371346220832, 29.303113643661117], [2.1422648006986234, 1.236837134622083, 22.829490472416396], [2.1422648006986234, 1.2368371346220828, 3.677150752249365], [4.3155143157511436e-17, 8.631028631502287e-17, 6.749370008407048], [0.0, 0.0, 0.0], [-2.1422634024390676e-08, 2.4736743063492566, 14.103671825701214], [2.1422648006986234, 1.236837134622083, 17.175890769063468], [2.1422648006986234, 1.236837134622083, 10.426520760656418], [1.5684485684248854e-16, 3.136897136849771e-16, 24.53019258635763], [-2.142263393808039e-08, 2.473674306349257, 27.602411842515316], [-2.1422633981235532e-08, 2.473674306349257, 20.853041834108264]], "vdw gap": 3.0722192561576875, "bond length deviation": [["Sb", 0.08335864842539104]], "bond angle deviation": [["Sb", 2.81355170727276]], "mass density": 3.7783838537327132, "total energy": -402.08540484, "total energy_soc": -402.13918358, "cohesive energy": -1.2728327780000048, "exfoliation energy": 0.04133091418610183, "born effective charge tensor": 14.509046, "born effective charge q_xy": 6.404974, "born effective charge q_z": 1.699098, "dielectric constant XY": 45.866577, "dielectric constant Z": 68.810007, "bader charge": [["Sb", 5.0, 4.454361], ["Sb", 5.0, 4.458929], ["Sb", 5.0, 4.457378], ["Sb", 5.0, 4.457372], ["Sb", 5.0, 4.45892], ["Sb", 5.0, 4.454368], ["Te", 6.0, 6.314588], ["Te", 6.0, 6.315104], ["Te", 6.0, 6.453678], ["Te", 6.0, 6.314381], ["Te", 6.0, 6.313869], ["Te", 6.0, 6.45868], ["Te", 6.0, 6.315097], ["Te", 6.0, 6.314597], ["Te", 6.0, 6.45868]], "density of states at fermi": 0.0006181, "effective mass": "UNKNOWN", "vbm": 0, "cbm": 0, "band gap": 0, "vbm soc": 0, "cbm soc": 0, "band gap soc": 0, "layered?": true, "component layers": ["Sb2Te3-P_3m1", "Sb2Te3-P_3m1", "Sb2Te3-P_3m1"], "KPath": ["0.5000 0.0000 0.0000 ! M", "0.0000 0.0000 0.0000 ! G", "0.0000 0.0000 0.0000 ! G", "0.0000 0.0000 0.5000 ! A", "0.0000 0.0000 0.5000 ! A", "0.3333 0.3333 0.5000 ! H", "0.3333 0.3333 0.5000 ! H", "0.3333 0.3333 0.0000 ! K", "0.3333 0.3333 0.0000 ! K", "0.5000 0.0000 0.5000 ! L", "0.5000 0.0000 0.5000 ! L", "0.5000 0.0000 0.0000 ! M"], "band locations": "/home/gtown/Documents/carbon/mpAll/allbulk/calcs/dir_Sb6Te9-mp-1201/scf/band", "band soc location": "/home/gtown/Documents/carbon/mpAll/allbulk/calcs/dir_Sb6Te9-mp-1201/scf_soc/band_soc", "dos location": "/home/gtown/Documents/carbon/mpAll/allbulk/calcs/dir_Sb6Te9-mp-1201/scf/dos"}