{"MP-ID": "mp-7716", "formula": "Sb6Te6", "spacegroup": "P-3m1 (164)", "cell": {"array": [[4.303860549038106, -4e-16, 0.0], [-2.151930274519052, 3.727252569812642, -0.0], [0.0, -1e-16, 24.447303520505805]]}, "symbols": ["Sb", "Sb", "Sb", "Sb", "Sb", "Sb", "Te", "Te", "Te", "Te", "Te", "Te"], "positions": [[0.0, -1.312778016686937e-17, 3.2093882628993184], [0.0, -8.687221983313062e-17, 21.237915257606485], [-2.1519288571930362e-08, 2.4848350589659285, 7.149195420713704], [2.1519302960383424, 1.242417510846713, 17.298108099792103], [-2.1519288571930362e-08, 2.4848350589659285, 12.991299446080252], [2.1519302960383424, 1.242417510846713, 11.456004074425554], [-2.1519288571930362e-08, 2.4848350589659285, 1.524988819433165], [2.1519302960383424, 1.242417510846713, 22.922314701072644], [-2.1519288571930362e-08, 2.4848350589659285, 19.255219765618612], [2.1519302960383424, 1.242417510846713, 5.192083754887197], [0.0, -3.6198819740424646e-17, 8.849635332782386], [0.0, -6.380118025957534e-17, 15.597668187723418]], "vdw gap": 2.606368741643168, "bond length deviation": [["Sb", 0.22154439408508397]], "bond angle deviation": [["Sb", 5.807854735423185]], "mass density": 3.8148954868141227, "total energy": -318.90810206, "total energy_soc": -320.87065739, "cohesive energy": -1.0139051516666673, "exfoliation energy": 0.9192297794134965, "born effective charge tensor": 12.52053833333333, "born effective charge q_xy": 5.330661666666665, "born effective charge q_z": 1.859215, "dielectric constant XY": 56.89476, "dielectric constant Z": 83.82676, "bader charge": [["Sb", 5.0, 4.468287], ["Sb", 5.0, 4.468271], ["Sb", 5.0, 4.480036], ["Sb", 5.0, 4.480036], ["Sb", 5.0, 4.965442], ["Sb", 5.0, 4.962108], ["Te", 6.0, 6.311488], ["Te", 6.0, 6.310998], ["Te", 6.0, 6.450603], ["Te", 6.0, 6.450603], ["Te", 6.0, 6.326063], ["Te", 6.0, 6.326063]], "density of states at fermi": 0.01419, "effective mass": -0.16137097979095702, "vbm": 0, "cbm": 0, "band gap": 0, "vbm soc": 0, "cbm soc": 0, "band gap soc": 0, "layered?": true, "component layers": ["Sb2Te3-P3m1", "Sb2Te3-P3m1", "Sb2-P6_3_mmc"], "KPath": ["0.5000 0.0000 0.0000 ! M", "0.0000 0.0000 0.0000 ! G", "0.0000 0.0000 0.0000 ! G", "0.0000 0.0000 0.5000 ! A", "0.0000 0.0000 0.5000 ! A", "0.3333 0.3333 0.5000 ! H", "0.3333 0.3333 0.5000 ! H", "0.3333 0.3333 0.0000 ! K", "0.3333 0.3333 0.0000 ! K", "0.5000 0.0000 0.5000 ! L", "0.5000 0.0000 0.5000 ! L", "0.5000 0.0000 0.0000 ! M"], "band locations": "/home/gtown/Documents/carbon/mpAll/allbulk/calcs/dir_Sb6Te6-mp-7716/scf/band", "band soc location": "/home/gtown/Documents/carbon/mpAll/allbulk/calcs/dir_Sb6Te6-mp-7716/scf_soc/band_soc", "dos location": "/home/gtown/Documents/carbon/mpAll/allbulk/calcs/dir_Sb6Te6-mp-7716/scf/dos"}