{"MP-ID": "mp-6997", "formula": "Sb6Te3", "spacegroup": "P-3m1 (164)", "cell": {"array": [[4.328738943880779, -1e-16, -0.0], [-2.164369471940389, 3.7487978917517766, -0.0], [-1e-16, 1e-16, 17.589018309672095]]}, "symbols": ["Sb", "Sb", "Sb", "Sb", "Sb", "Sb", "Te", "Te", "Te"], "positions": [[-6.498314025587629e-17, 6.498314025587629e-17, 11.42989643780598], [-3.501685974412371e-17, 3.501685974412371e-17, 6.159121871866116], [2.164369493584071, 1.249599284754607, 7.661520620276915], [-2.1643681031050665e-08, 2.4991986069971697, 15.630162767143284], [2.164369493584071, 1.249599284754607, 1.9588555425288134], [-2.164368099862893e-08, 2.4991986069971697, 9.927497689395187], [0.0, 0.0, 0.0], [2.164369493584071, 1.249599284754607, 13.949438522428755], [-2.164368096287982e-08, 2.4991986069971697, 3.6395797872433397]], "vdw gap": 2.5195420846227763, "bond length deviation": [["Sb", 0.2356173872698836]], "bond angle deviation": [["Sb", 6.355780550727614]], "mass density": 3.900472189754567, "total energy": -219.09646345, "total energy_soc": -220.34233036, "cohesive energy": 1.2659004288888884, "exfoliation energy": -1.1420295941030139, "born effective charge tensor": 11.481477777777776, "born effective charge q_xy": 4.661954444444444, "born effective charge q_z": 2.157568888888889, "dielectric constant XY": 72.973438, "dielectric constant Z": 46.527314, "bader charge": [["Sb", 5.0, 4.937577], ["Sb", 5.0, 4.937572], ["Sb", 5.0, 5.01212], ["Sb", 5.0, 4.50482], ["Sb", 5.0, 4.504812], ["Sb", 5.0, 5.013907], ["Te", 6.0, 6.439232], ["Te", 6.0, 6.32498], ["Te", 6.0, 6.32498]], "density of states at fermi": 0.02652, "effective mass": -2.272033094620137, "vbm": 0, "cbm": 0, "band gap": 0, "vbm soc": 0, "cbm soc": 0, "band gap soc": 0, "layered?": true, "component layers": ["Sb2-P6_3_mmc", "Sb2-P6_3_mmc", "Sb2Te3-P_3m1"], "KPath": ["0.5000 0.0000 0.0000 ! M", "0.0000 0.0000 0.0000 ! G", "0.0000 0.0000 0.0000 ! G", "0.0000 0.0000 0.5000 ! A", "0.0000 0.0000 0.5000 ! A", "0.3333 0.3333 0.5000 ! H", "0.3333 0.3333 0.5000 ! H", "0.3333 0.3333 0.0000 ! K", "0.3333 0.3333 0.0000 ! K", "0.5000 0.0000 0.5000 ! L", "0.5000 0.0000 0.5000 ! L", "0.5000 0.0000 0.0000 ! M"], "band locations": "/home/gtown/Documents/carbon/mpAll/allbulk/calcs/dir_Sb6Te3-mp-6997/scf/band", "band soc location": "/home/gtown/Documents/carbon/mpAll/allbulk/calcs/dir_Sb6Te3-mp-6997/scf_soc/band_soc", "dos location": "/home/gtown/Documents/carbon/mpAll/allbulk/calcs/dir_Sb6Te3-mp-6997/scf/dos"}