{"MP-ID": "mp-672706", "formula": "Sb8Se12", "spacegroup": "Pnma (62)", "cell": {"array": [[3.7915634503690163, -0.0, 0.0], [-0.0, 12.958855936294448, 0.0], [0.0, 0.0, 12.491342172269178]]}, "symbols": ["Sb", "Sb", "Sb", "Sb", "Sb", "Sb", "Sb", "Sb", "Se", "Se", "Se", "Se", "Se", "Se", "Se", "Se", "Se", "Se", "Se", "Se"], "positions": [[0.9478908625922541, 6.960632171972638, 2.9251131030548816], [0.9478908625922541, 0.4812042038254103, 3.3205579830797047], [2.843672587776762, 5.998223764321815, 9.566229069214303], [2.843672587776762, 12.477651732469035, 9.170784189189463], [0.9478908625922541, 3.1659390402038787, 0.7623234461054211], [2.843672587776762, 9.792916896090569, 11.729018726163764], [2.843672587776762, 3.313488927943344, 7.007994532240004], [0.9478908625922541, 9.645367008351103, 5.483347640029167], [0.9478908625922541, 7.970851021335142, 11.95836156686203], [0.9478908625922541, 9.545451201815837, 2.8954523984287777], [2.843672587776762, 3.4134047344786, 9.5958897738404], [2.843672587776762, 4.988004914959307, 0.5329806054071483], [0.9478908625922541, 3.0660232336686204, 3.3502186877058113], [2.843672587776762, 9.892832702625835, 9.141123484563368], [0.9478908625922541, 6.314990833628894, 7.759546441940674], [2.843672587776762, 11.46743288310653, 5.7126904807274395], [0.9478908625922541, -0.16443713451832967, 10.977466816463092], [0.9478908625922541, 1.4914230531879136, 6.7786516915417385], [2.843672587776762, 0.16443713451832837, 1.5138753558060793], [2.843672587776762, 6.643865102665554, 4.731795730328507]], "vdw gap": 1.3815770426226983, "bond length deviation": [["Sb", 0.5268538595038099], ["Se", 0.5379668063218883]], "bond angle deviation": [["Sb", 25.24291437716127], ["Se", 22.127114901232403]], "mass density": 3.1307674805462473, "total energy": -530.63099936, "total energy_soc": -506.93330297, "cohesive energy": -7.662087537437498, "exfoliation energy": [], "born effective charge tensor": 5.452406000000001, "born effective charge q_xy": 3.072009408393145, "born effective charge q_z": 1.18855, "dielectric constant XY": 20.59189679916343, "dielectric constant Z": 16.320438, "bader charge": [["Sb", 5.0, 4.126024], ["Sb", 5.0, 4.126024], ["Sb", 5.0, 4.126024], ["Sb", 5.0, 4.126024], ["Sb", 5.0, 4.114564], ["Sb", 5.0, 4.114564], ["Sb", 5.0, 4.114564], ["Sb", 5.0, 4.114564], ["Se", 6.0, 6.592057], ["Se", 6.0, 6.586348], ["Se", 6.0, 6.586348], ["Se", 6.0, 6.592057], ["Se", 6.0, 6.586348], ["Se", 6.0, 6.586348], ["Se", 6.0, 6.581006], ["Se", 6.0, 6.592057], ["Se", 6.0, 6.581006], ["Se", 6.0, 6.592057], ["Se", 6.0, 6.581006], ["Se", 6.0, 6.581006]], "density of states at fermi": 0.0, "effective mass": -0.6984798653006312, "vbm": 0.42669999999999986, "cbm": 3.6435, "band gap": 4.0702, "vbm soc": 3.6663, "cbm soc": 4.0821, "band gap soc": 0.4157999999999995, "layered?": false, "component layers": [], "KPath": ["0.0000 0.0000 0.5000 ! Z", "0.0000 0.0000 0.0000 ! G", "0.0000 0.0000 0.0000 ! G", "0.5000 0.5000 0.5000 ! R", "0.5000 0.5000 0.5000 ! R", "0.5000 0.5000 0.0000 ! S", "0.5000 0.5000 0.0000 ! S", "0.0000 0.5000 0.5000 ! T", "0.0000 0.5000 0.5000 ! T", "0.5000 0.0000 0.5000 ! U", "0.5000 0.0000 0.5000 ! U", "0.5000 0.0000 0.0000 ! X", "0.5000 0.0000 0.0000 ! X", "0.0000 0.5000 0.0000 ! Y", "0.0000 0.5000 0.0000 ! Y", "0.0000 0.0000 0.5000 ! Z"], "band locations": "/home/gtown/Documents/carbon/mpAll/allbulk/calcs/dir_Sb8Se12-mp-672706/scf/band", "band soc location": "/home/gtown/Documents/carbon/mpAll/allbulk/calcs/dir_Sb8Se12-mp-672706/scf_soc/band_soc", "dos location": "/home/gtown/Documents/carbon/mpAll/allbulk/calcs/dir_Sb8Se12-mp-672706/scf/dos"}