{"MP-ID": "mp-2160", "formula": "Sb8Se12", "spacegroup": "Pnma (62)", "cell": {"array": [[3.991146558276267, -0.0, 0.0], [-0.0, 11.536957324550519, 0.0], [0.0, 0.0, 12.156506940431992]]}, "symbols": ["Sb", "Sb", "Sb", "Sb", "Sb", "Sb", "Sb", "Sb", "Se", "Se", "Se", "Se", "Se", "Se", "Se", "Se", "Se", "Se", "Se", "Se"], "positions": [[2.9933599187072004, 0.4387806433992715, 1.7383714322115507], [0.9977866395690668, 11.098176681151246, 10.418135508220441], [0.9977866395690668, 6.2072593056745315, 4.339882038004446], [2.9933599187072004, 5.3296980188759875, 7.816624902427546], [0.9977866395690668, 3.8017555456914236, 0.39554897909979275], [2.9933599187072004, 7.735201778859095, 11.760957961332203], [2.9933599187072004, 9.570234207966683, 5.682704491116202], [0.9977866395690668, 1.9667231165838364, 6.473802449315785], [2.9933599187072004, 1.5081310414852394, 11.517838790281244], [0.9977866395690668, 10.02882628306528, 0.6386681501507468], [0.9977866395690668, 7.2766097037604975, 6.716921620366744], [2.9933599187072004, 4.26034762079002, 5.439585320065249], [0.9977866395690668, 2.2249318118630326, 2.5555658486380715], [2.9933599187072004, 9.312025512687487, 9.60094109179392], [2.9933599187072004, 7.993410474138291, 3.522687621577926], [0.9977866395690668, 3.5435468504122256, 8.633819318854068], [2.9933599187072004, 0.6032962526892373, 7.6488664571189515], [0.9977866395690668, 10.9336610718612, 4.507640483313046], [0.9977866395690668, 6.371774914964578, 10.585893953529038], [2.9933599187072004, 5.165182409586023, 1.5706129869029515]], "vdw gap": 0.9671217729398545, "bond length deviation": [["Sb", 0.5809284850075156], ["Se", 0.3926422823837908]], "bond angle deviation": [["Sb", 24.64206019891488], ["Se", 14.204028607625196]], "mass density": 3.4327892766019614, "total energy": -493.06810607, "total energy_soc": -493.34115183, "cohesive energy": -5.783942872937496, "exfoliation energy": NaN, "born effective charge tensor": 10.828914, "born effective charge q_xy": 6.630575217774095, "born effective charge q_z": 1.4691619999999996, "dielectric constant XY": 28.026559189349467, "dielectric constant Z": 11.941325, "bader charge": [["Sb", 5.0, 4.077625], ["Sb", 5.0, 4.077625], ["Sb", 5.0, 4.077625], ["Sb", 5.0, 4.077625], ["Sb", 5.0, 4.068418], ["Sb", 5.0, 4.068418], ["Sb", 5.0, 4.068418], ["Sb", 5.0, 4.068418], ["Se", 6.0, 6.641127], ["Se", 6.0, 6.641127], ["Se", 6.0, 6.641127], ["Se", 6.0, 6.641127], ["Se", 6.0, 6.586857], ["Se", 6.0, 6.586857], ["Se", 6.0, 6.586857], ["Se", 6.0, 6.586857], ["Se", 6.0, 6.625972], ["Se", 6.0, 6.625972], ["Se", 6.0, 6.625972], ["Se", 6.0, 6.625972]], "density of states at fermi": 0.107, "effective mass": -2.2498017505554593, "vbm": 0.9281999999999995, "cbm": 4.3307, "band gap": 5.2589, "vbm soc": 4.3699, "cbm soc": 5.2344, "band gap soc": 0.8644999999999996, "layered?": true, "component layers": ["Sb4Se6-P2_1_m", "Sb4Se6-P2_1_m"], "KPath": ["0.0000 0.0000 0.5000 ! Z", "0.0000 0.0000 0.0000 ! G", "0.0000 0.0000 0.0000 ! G", "0.5000 0.5000 0.5000 ! R", "0.5000 0.5000 0.5000 ! R", "0.5000 0.5000 0.0000 ! S", "0.5000 0.5000 0.0000 ! S", "0.0000 0.5000 0.5000 ! T", "0.0000 0.5000 0.5000 ! T", "0.5000 0.0000 0.5000 ! U", "0.5000 0.0000 0.5000 ! U", "0.5000 0.0000 0.0000 ! X", "0.5000 0.0000 0.0000 ! X", "0.0000 0.5000 0.0000 ! Y", "0.0000 0.5000 0.0000 ! Y", "0.0000 0.0000 0.5000 ! Z"], "band locations": "/home/gtown/Documents/carbon/mpAll/allbulk/calcs/dir_Sb8Se12-mp-2160/scf/band", "band soc location": "/home/gtown/Documents/carbon/mpAll/allbulk/calcs/dir_Sb8Se12-mp-2160/scf_soc/band_soc", "dos location": "/home/gtown/Documents/carbon/mpAll/allbulk/calcs/dir_Sb8Se12-mp-2160/scf/dos"}