{"MP-ID": "mp-1179704", "formula": "Sb8Se12", "spacegroup": "Pnma (62)", "cell": {"array": [[3.7938606196745743, -0.0, 0.0], [-0.0, 12.812397300570456, 0.0], [0.0, 0.0, 14.127109256961337]]}, "symbols": ["Sb", "Sb", "Sb", "Sb", "Sb", "Sb", "Sb", "Sb", "Se", "Se", "Se", "Se", "Se", "Se", "Se", "Se", "Se", "Se", "Se", "Se"], "positions": [[0.9484651549186436, 11.435381848441104, 10.18752572860146], [0.9484651549186436, 5.029183198155878, 11.003138156840544], [2.8453954647559305, 1.377015452129351, 3.9395835283598823], [2.8453954647559305, 7.78321410241458, 3.1239711001207855], [0.9484651549186436, 8.371937177766066, 8.139651000670368], [2.8453954647559305, 4.440460122804381, 5.9874582562909655], [2.8453954647559305, 10.846658773089619, 1.076096372189704], [0.9484651549186436, 1.965738527480846, 13.051012884771637], [0.9484651549186436, 2.757137591974563, 6.703574276287374], [0.9484651549186436, 2.520987318463516, 10.523522065788722], [2.8453954647559305, 10.291409982106947, 3.603587191172616], [2.8453954647559305, 10.055259708595896, 7.423534980673965], [0.9484651549186436, 8.927185968748738, 10.667141819653283], [2.8453954647559305, 3.88521133182171, 3.4599674373080527], [0.9484651549186436, 0.7535175311170552, 2.20926639019888], [2.8453954647559305, 3.649061058310667, 13.76712890476804], [0.9484651549186436, 7.159716181402285, 4.854288238281787], [0.9484651549186436, 9.163336242259788, 0.35998035219329516], [2.8453954647559305, 5.652681119168173, 9.272821018679547], [2.8453954647559305, 12.0588797694534, 11.917842866762458]], "vdw gap": 1.1331700180091797, "bond length deviation": [["Sb", 0.5190055460927064], ["Se", 0.5144078239906259]], "bond angle deviation": [["Sb", 20.34028570094046], ["Se", 23.705366834305906]], "mass density": 2.7982069850367406, "total energy": -503.76185039, "total energy_soc": -504.11333297, "cohesive energy": -6.318630088937496, "exfoliation energy": [], "born effective charge tensor": 5.812468000000001, "born effective charge q_xy": 3.2534068714902538, "born effective charge q_z": 1.318602, "dielectric constant XY": 13.465746011860798, "dielectric constant Z": 8.3179, "bader charge": [["Sb", 5.0, 4.121285], ["Sb", 5.0, 4.121285], ["Sb", 5.0, 4.121285], ["Sb", 5.0, 4.121285], ["Sb", 5.0, 4.132802], ["Sb", 5.0, 4.132802], ["Sb", 5.0, 4.132802], ["Sb", 5.0, 4.132802], ["Se", 6.0, 6.584471], ["Se", 6.0, 6.551314], ["Se", 6.0, 6.551314], ["Se", 6.0, 6.58447], ["Se", 6.0, 6.551314], ["Se", 6.0, 6.551314], ["Se", 6.0, 6.610129], ["Se", 6.0, 6.584471], ["Se", 6.0, 6.610129], ["Se", 6.0, 6.584471], ["Se", 6.0, 6.610129], ["Se", 6.0, 6.610129]], "density of states at fermi": 0.0, "effective mass": 24.220173387166607, "vbm": 0.5638999999999998, "cbm": 2.7745, "band gap": 3.3384, "vbm soc": 2.795, "cbm soc": 3.3422, "band gap soc": 0.5472000000000001, "layered?": false, "component layers": [], "KPath": ["0.0000 0.0000 0.5000 ! Z", "0.0000 0.0000 0.0000 ! G", "0.0000 0.0000 0.0000 ! G", "0.5000 0.5000 0.5000 ! R", "0.5000 0.5000 0.5000 ! R", "0.5000 0.5000 0.0000 ! S", "0.5000 0.5000 0.0000 ! S", "0.0000 0.5000 0.5000 ! T", "0.0000 0.5000 0.5000 ! T", "0.5000 0.0000 0.5000 ! U", "0.5000 0.0000 0.5000 ! U", "0.5000 0.0000 0.0000 ! X", "0.5000 0.0000 0.0000 ! X", "0.0000 0.5000 0.0000 ! Y", "0.0000 0.5000 0.0000 ! Y", "0.0000 0.0000 0.5000 ! Z"], "band locations": "/home/gtown/Documents/carbon/mpAll/allbulk/calcs/dir_Sb8Se12-mp-1179704/scf/band", "band soc location": "/home/gtown/Documents/carbon/mpAll/allbulk/calcs/dir_Sb8Se12-mp-1179704/scf_soc/band_soc", "dos location": "/home/gtown/Documents/carbon/mpAll/allbulk/calcs/dir_Sb8Se12-mp-1179704/scf/dos"}