{"MP-ID": "mp-1078904", "formula": "Sb8Te12", "spacegroup": "C2/c (15)", "cell": {"array": [[9.211553313011294, 0.0, 2.7928879912913684], [0.0, 12.537940530208324, 0.0], [-9.99586604117e-05, 0.0, 5.716394707836047]]}, "symbols": ["Sb", "Sb", "Sb", "Sb", "Sb", "Sb", "Sb", "Sb", "Te", "Te", "Te", "Te", "Te", "Te", "Te", "Te", "Te", "Te", "Te", "Te"], "positions": [[6.265808701259196, 4.735840497941957, 7.137930351049601], [2.9455946737614833, 4.735840497941957, 4.229549701995839], [2.9456446530916907, 7.802100032266361, 1.3713523480778134], [6.265858680589401, 7.802100032266361, 4.27973299713158], [1.6600320447535444, 11.004810763046125, 5.741486355403915], [7.551371330267129, 11.004810763046125, 5.625993697641523], [7.551421309597335, 1.5331297671622044, 2.767796343723497], [1.6600820240837504, 1.5331297671622044, 2.883289001485894], [6.184349529604277, 7.79068057657576, 7.122893586678066], [3.027053845416399, 7.79068057657576, 4.244586466367372], [3.027103824746605, 4.7472599536325655, 1.386389112449351], [6.184399508934482, 4.7472599536325655, 4.264696232760042], [-2.4989665102925e-05, 6.483951732776266, 1.4290986769590117], [-7.4968995308775e-05, 6.0539887974320665, 4.287296030877036], [1.5785728730986328, 1.5217103114715973, 5.726449591032383], [7.632830501922046, 1.5217103114715973, 5.641030462013057], [7.632880481252252, 11.016230218736727, 2.7828331080950353], [1.5786228524288386, 11.016230218736727, 2.868252237114359], [4.605751666840544, 0.21498146767209658, 2.825542672604696], [4.605701687510338, -0.21498146767210033, 5.683740026522719]], "vdw gap": 1.3814072312741503, "bond length deviation": [["Sb", 0.3225831349800318]], "bond angle deviation": [["Sb", 20.150405821193196]], "mass density": 3.794537214536779, "total energy": -391.42033279, "total energy_soc": -393.34967426, "cohesive energy": 5.961844238499998, "exfoliation energy": -0.6014351737901444, "born effective charge tensor": 4.534642, "born effective charge q_xy": 3.2327580715327273, "born effective charge q_z": 0.5397480000000001, "dielectric constant XY": 641.5878492171965, "dielectric constant Z": 8.095697, "bader charge": [["Sb", 5.0, 4.707875], ["Sb", 5.0, 4.707802], ["Sb", 5.0, 4.707802], ["Sb", 5.0, 4.707875], ["Sb", 5.0, 4.707875], ["Sb", 5.0, 4.707802], ["Sb", 5.0, 4.707802], ["Sb", 5.0, 4.707875], ["Te", 6.0, 6.243576], ["Te", 6.0, 6.244873], ["Te", 6.0, 6.244873], ["Te", 6.0, 6.243637], ["Te", 6.0, 6.095812], ["Te", 6.0, 6.095812], ["Te", 6.0, 6.243637], ["Te", 6.0, 6.244533], ["Te", 6.0, 6.244446], ["Te", 6.0, 6.244464], ["Te", 6.0, 6.095812], ["Te", 6.0, 6.095812]], "density of states at fermi": 0.0, "effective mass": -0.06794920504723681, "vbm": 0, "cbm": 0, "band gap": 0, "vbm soc": 0, "cbm soc": 0, "band gap soc": 0, "layered?": true, "component layers": ["Sb4Te6-P2_c", "Sb4Te6-P2_c"], "KPath": ["0.0000 -0.5000 0.0000 ! Z", "0.0000 0.0000 0.0000 ! G", "0.0000 0.0000 0.0000 ! G", "0.0000 -0.5000 0.5000 ! A", "0.0000 -0.5000 0.5000 ! A", "-0.5000 0.0000 0.5000 ! C", "-0.5000 0.0000 0.5000 ! C", "-0.5000 -0.5000 0.0000 ! D", "-0.5000 -0.5000 0.0000 ! D", "0.5000 -0.5000 0.0000 ! D1", "0.5000 -0.5000 0.0000 ! D1", "-0.5000 -0.5000 0.5000 ! E", "-0.5000 -0.5000 0.5000 ! E", "-0.6523 0.0000 0.4309 ! H", "-0.6523 0.0000 0.4309 ! H", "-0.3477 0.0000 0.5691 ! H1", "-0.3477 0.0000 0.5691 ! H1", "0.3477 0.0000 0.4309 ! H2", "0.3477 0.0000 0.4309 ! H2", "-0.6523 -0.5000 0.4309 ! M", "-0.6523 -0.5000 0.4309 ! M", "-0.3477 -0.5000 0.5691 ! M1", "-0.3477 -0.5000 0.5691 ! M1", "0.3477 -0.5000 0.4309 ! M2", "0.3477 -0.5000 0.4309 ! M2", "0.0000 0.0000 0.5000 ! X", "0.0000 0.0000 0.5000 ! X", "-0.5000 0.0000 0.0000 ! Y", "-0.5000 0.0000 0.0000 ! Y", "0.5000 0.0000 0.0000 ! Y1", "0.5000 0.0000 0.0000 ! Y1", "0.0000 -0.5000 0.0000 ! Z"], "band locations": "/home/gtown/Documents/carbon/mpAll/allbulk/calcs/dir_Sb8Te12-mp-1078904/scf/band", "band soc location": "/home/gtown/Documents/carbon/mpAll/allbulk/calcs/dir_Sb8Te12-mp-1078904/scf_soc/band_soc", "dos location": "/home/gtown/Documents/carbon/mpAll/allbulk/calcs/dir_Sb8Te12-mp-1078904/scf/dos"}