{"MP-ID": "mp-19", "formula": "Te3", "spacegroup": "P3_121 (152)", "cell": {"array": [[4.589441374061009, -0.0, 0.0], [-2.294720687030504, 3.974572819116195, 0.0], [0.0, 0.0, 5.903595424768976]]}, "symbols": ["Te", "Te", "Te"], "positions": [[1.0900687767282833, 0.0, 1.9678651219110195], [-0.5450343883641413, 0.9440272525189205, 3.935730302857956], [1.7496862986663633, 3.030545566597275, 0.0]], "vdw gap": 1.9678651809469365, "bond length deviation": [], "bond angle deviation": [], "mass density": 3.5547172105641063, "total energy": -70.23506022, "total energy_soc": -69.8543599, "cohesive energy": 2.0055375700000013, "exfoliation energy": [], "born effective charge tensor": 0.9838399999999999, "born effective charge q_xy": 0.49191999999999997, "born effective charge q_z": 0.0, "dielectric constant XY": 11.533748, "dielectric constant Z": 11.87081, "bader charge": [["Te", 6.0, 6.004041], ["Te", 6.0, 5.999842], ["Te", 6.0, 5.996117]], "density of states at fermi": 0.0, "effective mass": -0.17239564703118065, "vbm": 0, "cbm": 0, "band gap": 0, "vbm soc": 0, "cbm soc": 0, "band gap soc": 0, "layered?": false, "component layers": [], "KPath": ["0.5000 0.0000 0.0000 ! M", "0.0000 0.0000 0.0000 ! G", "0.0000 0.0000 0.0000 ! G", "0.0000 0.0000 0.5000 ! A", "0.0000 0.0000 0.5000 ! A", "0.3333 0.3333 0.5000 ! H", "0.3333 0.3333 0.5000 ! H", "0.3333 0.3333 0.0000 ! K", "0.3333 0.3333 0.0000 ! K", "0.5000 0.0000 0.5000 ! L", "0.5000 0.0000 0.5000 ! L", "0.5000 0.0000 0.0000 ! M"], "band locations": "/home/gtown/Documents/carbon/mpAll/allbulk/calcs/dir_Te3-mp-19/scf/band", "band soc location": "/home/gtown/Documents/carbon/mpAll/allbulk/calcs/dir_Te3-mp-19/scf_soc/band_soc", "dos location": "/home/gtown/Documents/carbon/mpAll/allbulk/calcs/dir_Te3-mp-19/scf/dos"}