{"MP-ID": "mp-567313", "formula": "Te3", "spacegroup": "P3_221 (154)", "cell": {"array": [[4.581084879515706, 1e-16, 0.0], [-2.290542439757852, 3.967335882553377, -0.0], [0.0, -0.0, 5.901526988001762]]}, "symbols": ["Te", "Te", "Te"], "positions": [[-0.5455457376593632, 0.9449129354786595, 1.9671756429955096], [1.0910914753187269, 2.3817316291115582e-17, 3.934351345006252], [1.74499670209849, 3.0224229470747166, 0.0]], "vdw gap": 1.9671757020107423, "bond length deviation": [], "bond angle deviation": [], "mass density": 3.5689480203193047, "total energy": -70.26497188, "total energy_soc": -69.8740522, "cohesive energy": 1.9955670166666646, "exfoliation energy": [], "born effective charge tensor": 1.00944, "born effective charge q_xy": 0.50472, "born effective charge q_z": 0.0, "dielectric constant XY": 11.753756, "dielectric constant Z": 12.057394, "bader charge": [["Te", 6.0, 6.004106], ["Te", 6.0, 5.999446], ["Te", 6.0, 5.996448]], "density of states at fermi": 15.03, "effective mass": -0.1696591060012389, "vbm": 0, "cbm": 0, "band gap": 0, "vbm soc": 0, "cbm soc": 0, "band gap soc": 0, "layered?": false, "component layers": [], "KPath": ["0.5000 0.0000 0.0000 ! M", "0.0000 0.0000 0.0000 ! G", "0.0000 0.0000 0.0000 ! G", "0.0000 0.0000 0.5000 ! A", "0.0000 0.0000 0.5000 ! A", "0.3333 0.3333 0.5000 ! H", "0.3333 0.3333 0.5000 ! H", "0.3333 0.3333 0.0000 ! K", "0.3333 0.3333 0.0000 ! K", "0.5000 0.0000 0.5000 ! L", "0.5000 0.0000 0.5000 ! L", "0.5000 0.0000 0.0000 ! M"], "band locations": "/home/gtown/Documents/carbon/mpAll/allbulk/calcs/dir_Te3-mp-567313/scf/band", "band soc location": "/home/gtown/Documents/carbon/mpAll/allbulk/calcs/dir_Te3-mp-567313/scf_soc/band_soc", "dos location": "/home/gtown/Documents/carbon/mpAll/allbulk/calcs/dir_Te3-mp-567313/scf/dos"}