{"MP-ID": "mp-1064307", "formula": "Te4", "spacegroup": "P2_12_12 (18)", "cell": {"array": [[3.0500868135198935, 0.0, 0.0], [0.0, 4.5760428304544885, 0.0], [0.0, 0.0, 9.706275455657957]]}, "symbols": ["Te", "Te", "Te", "Te"], "positions": [[0.7193358336892928, 3.7718931554851736, 1.14319688113918], [2.3307509798306003, 3.092171090196559, 5.996334608968165], [0.7193358336892928, 0.8041496749693147, 8.563078574518771], [2.3307509798306003, 1.4838717402579296, 3.7099408466898]], "vdw gap": 2.56674396555062, "bond length deviation": [], "bond angle deviation": [], "mass density": 3.7675217856190533, "total energy": -106.23157538, "total energy_soc": -107.09599891, "cohesive energy": -1.1406695350000007, "exfoliation energy": [], "born effective charge tensor": 0.0, "born effective charge q_xy": 0.0, "born effective charge q_z": 0.0, "dielectric constant XY": 15.851731843847537, "dielectric constant Z": 639.242065, "bader charge": [["Te", 6.0, 6.001638], ["Te", 6.0, 5.998362], ["Te", 6.0, 5.998362], ["Te", 6.0, 6.001638]], "density of states at fermi": 2.917, "effective mass": 0.022946771831293015, "vbm": 0, "cbm": 0, "band gap": 0, "vbm soc": 0, "cbm soc": 0, "band gap soc": 0, "layered?": false, "component layers": [], "KPath": ["0.0000 0.0000 0.5000 ! Z", "0.0000 0.0000 0.0000 ! G", "0.0000 0.0000 0.0000 ! G", "0.5000 0.5000 0.5000 ! R", "0.5000 0.5000 0.5000 ! R", "0.5000 0.5000 0.0000 ! S", "0.5000 0.5000 0.0000 ! S", "0.0000 0.5000 0.5000 ! T", "0.0000 0.5000 0.5000 ! T", "0.5000 0.0000 0.5000 ! U", "0.5000 0.0000 0.5000 ! U", "0.5000 0.0000 0.0000 ! X", "0.5000 0.0000 0.0000 ! X", "0.0000 0.5000 0.0000 ! Y", "0.0000 0.5000 0.0000 ! Y", "0.0000 0.0000 0.5000 ! Z"], "band locations": "/home/gtown/Documents/carbon/mpAll/allbulk/calcs/dir_Te4-mp-1064307/scf/band", "band soc location": "/home/gtown/Documents/carbon/mpAll/allbulk/calcs/dir_Te4-mp-1064307/scf_soc/band_soc", "dos location": "/home/gtown/Documents/carbon/mpAll/allbulk/calcs/dir_Te4-mp-1064307/scf/dos"}