{"MP-ID": "mp-570459", "formula": "Te6", "spacegroup": "C2/m (12)", "cell": {"array": [[7.447022639191593, 0.0, 0.0550719220252624], [0.0, 4.265867326268802, 0.0], [-0.0489698421657854, 0.0, 5.926026334772903]]}, "symbols": ["Te", "Te", "Te", "Te", "Te", "Te"], "positions": [[5.939006882268555, 2.132933663134401, 2.0696615639838982], [5.182557234353048, 0.0, 3.938972653826898], [0.0, 0.0, 0.0], [2.215495562672761, 0.0, 2.042125602971267], [1.45904591475725, 2.132933663134401, 3.911436692814267], [3.7235113195957963, 2.132933663134401, 0.0275359610126312]], "vdw gap": 2.014589641958636, "bond length deviation": [], "bond angle deviation": [], "mass density": 4.0665094919520435, "total energy": -172.33920797, "total energy_soc": -164.82290031, "cohesive energy": -3.305977018333332, "exfoliation energy": NaN, "born effective charge tensor": 8.840933333333334, "born effective charge q_xy": 5.81394916426195, "born effective charge q_z": 1.2666133333333334, "dielectric constant XY": 151.36858400309634, "dielectric constant Z": 212.546513, "bader charge": [["Te", 6.0, 5.972796], ["Te", 6.0, 5.972929], ["Te", 6.0, 6.054275], ["Te", 6.0, 5.972879], ["Te", 6.0, 5.972929], ["Te", 6.0, 6.054192]], "density of states at fermi": 0.0, "effective mass": -0.404041547473442, "vbm": 0, "cbm": 0, "band gap": 0, "vbm soc": 0, "cbm soc": 0, "band gap soc": 0, "layered?": true, "component layers": ["Te6-C2_m"], "KPath": ["0.0000 -0.5000 0.0000 ! Z", "0.0000 0.0000 0.0000 ! G", "0.0000 0.0000 0.0000 ! G", "0.0000 -0.5000 0.5000 ! A", "0.0000 -0.5000 0.5000 ! A", "-0.5000 0.0000 0.5000 ! C", "-0.5000 0.0000 0.5000 ! C", "-0.5000 -0.5000 0.0000 ! D", "-0.5000 -0.5000 0.0000 ! D", "0.5000 -0.5000 0.0000 ! D1", "0.5000 -0.5000 0.0000 ! D1", "-0.5000 -0.5000 0.5000 ! E", "-0.5000 -0.5000 0.5000 ! E", "-0.5100 0.0000 0.4940 ! H", "-0.5100 0.0000 0.4940 ! H", "-0.4900 0.0000 0.5060 ! H1", "-0.4900 0.0000 0.5060 ! H1", "0.4900 0.0000 0.4940 ! H2", "0.4900 0.0000 0.4940 ! H2", "-0.5100 -0.5000 0.4940 ! M", "-0.5100 -0.5000 0.4940 ! M", "-0.4900 -0.5000 0.5060 ! M1", "-0.4900 -0.5000 0.5060 ! M1", "0.4900 -0.5000 0.4940 ! M2", "0.4900 -0.5000 0.4940 ! M2", "0.0000 0.0000 0.5000 ! X", "0.0000 0.0000 0.5000 ! X", "-0.5000 0.0000 0.0000 ! Y", "-0.5000 0.0000 0.0000 ! Y", "0.5000 0.0000 0.0000 ! Y1", "0.5000 0.0000 0.0000 ! Y1", "0.0000 -0.5000 0.0000 ! Z"], "band locations": "/home/gtown/Documents/carbon/mpAll/allbulk/calcs/dir_Te6-mp-570459/scf/band", "band soc location": "/home/gtown/Documents/carbon/mpAll/allbulk/calcs/dir_Te6-mp-570459/scf_soc/band_soc", "dos location": "/home/gtown/Documents/carbon/mpAll/allbulk/calcs/dir_Te6-mp-570459/scf/dos"}