{"formula": "Sb2Te3", "spacegroup": "P3m1 (156)", "cell": {"array": [[4.263075246475754, 2e-16, 0.0], [-2.131537623237876, -3.6919314616926107, 0.0], [0.0, 0.0, -27.479169931526272]]}, "symbols": ["Sb", "Sb", "Te", "Te", "Te"], "positions": [[0.0, 0.0, -15.728179164051156], [2.1315376445532404, -1.2306438082577729, -11.754047601119174], [0.0, 0.0, -10.048736811116848], [2.1315376445532404, -1.2306438082577729, -17.432234542157346], [-2.131536215613698e-08, -2.4612876534348374, -13.742482249759068]], "vdw gap": 1.9884346486398936, "bond length deviation": [["Sb", 0.34711177665136944]], "bond angle deviation": [["Sb", 3.141058915939493]], "mass density": 4.245967219400484, "total energy": -0.69805804, "total energy_soc": -19.77521741, "born effective charge tensor": 11.396854, "born effective charge q_xy": 5.608192, "born effective charge q_z": 0.18047, "dielectric constant XY": 12.084526, "dielectric constant Z": 1.563284, "bader charge": [["Sb", 5.0, 1.313802], ["Sb", 5.0, 1.313389], ["Te", 6.0, 1.440372], ["Te", 6.0, 1.434043], ["Te", 6.0, 1.519353]], "vbm": 0.7073, "cbm": -0.8701, "band gap": -0.1628, "vbm soc": -0.87, "cbm soc": -0.1627, "band gap soc": 0.7073, "KPath": ["0.5000 0.0000 0.0000 ! M", "0.0000 0.0000 0.0000 ! G", "0.0000 0.0000 0.0000 ! G", "0.3333 0.3333 0.0000 ! K", "0.3333 0.3333 0.0000 ! K", "0.5000 0.0000 0.0000 ! M"], "band locations": "/home/gtown/Documents/carbon/mpAll/monoFromMP/calcs/dir_Sb2Te3-P3m1-2/scf/band", "band soc location": "/home/gtown/Documents/carbon/mpAll/monoFromMP/calcs/dir_Sb2Te3-P3m1-2/scf_soc/band_soc", "dos location": "/home/gtown/Documents/carbon/mpAll/monoFromMP/calcs/dir_Sb2Te3-P3m1-2/scf/dos"}