{"formula": "Ge2", "spacegroup": "P4/mmm (123)", "cell": {"array": [[3.579368439800845, 0.0, 0.0], [0.0, -3.579368439800845, 0.0], [0.0, 0.0, -20.0]]}, "symbols": {}, "positions": [[0.0, 0.0, -10.0], [1.7896842199004226, -1.7896842199004226, -10.0]], "total energy": -0.15442021, "total energy_soc": -7.6790032, "born effective charge": 0.0, "dielectric constant": [[50.250063, -0.0, -0.0], [0.0, 50.250063, 0.0], [0.0, 0.0, 1.197052]], "bader charge": [["Ge", 1.175105], ["Ge", 1.175105]], "vbm": 0, "cbm": 0, "band gap": 0, "vbm soc": 0, "cbm soc": 0, "band gap soc": 0, "KPath": ["0.0000 0.5000 0.0000 ! X", "0.0000 0.0000 0.0000 ! G", "0.0000 0.0000 0.0000 ! G", "0.5000 0.5000 0.0000 ! M", "0.5000 0.5000 0.0000 ! M", "0.0000 0.5000 0.0000 ! X"], "band locations": "/home/gtown/Documents/carbon/mpAll/monoFromMP/calcs/dir_Ge2-UNK-10/scf/band", "band soc location": "/home/gtown/Documents/carbon/mpAll/monoFromMP/calcs/dir_Ge2-UNK-10/scf_soc/band_soc", "dos location": "/home/gtown/Documents/carbon/mpAll/monoFromMP/calcs/dir_Ge2-UNK-10/scf/dos"}